ITEM: TIMESTEP
0
ITEM: NUMBER OF ATOMS
250
ITEM: BOX BOUNDS xy xz yz pp pp pp
-5.6891508966424871e-02 1.4416137458126245e+01 9.5957315680967672e-03
-5.5963139162043325e-02 1.4411531460903488e+01 -3.4978240828044486e-04
-5.4591186813486160e-02 1.4404591186813487e+01 5.5683217414419194e-03
ITEM: ATOMS id type x y z
1 2 14.3744 -0.0392796 -0.0467099
2 2 1.37627 1.4183 1.39333
3 2 2.8401 14.3889 14.3746
4 2 4.29949 1.39112 1.42225
5 2 5.74081 -0.045595 14.3822
6 2 7.17756 1.37053 1.37625
7 2 8.65416 14.3954 14.3864
8 2 10.0686 1.36779 1.38515
9 1 11.5129 14.3984 14.4024
10 2 12.9541 1.3726 1.38085
11 1 14.39 2.83536 14.3906
12 2 1.37688 4.27261 1.35104
13 2 2.80335 2.85799 14.3721
14 2 4.30926 4.26688 1.42877
15 2 5.75479 2.82897 -0.0539376
16 2 7.1705 4.25735 1.38348
17 2 8.62837 2.82776 14.3809
18 2 10.0743 4.28035 1.41042
19 2 11.5238 2.82218 -0.0507131
20 2 12.9726 4.27418 1.3996
21 2 14.4014 5.70726 14.3993
22 2 1.38333 7.18024 1.40245
23 2 2.83538 5.73726 14.3935
24 2 4.30261 7.17203 1.4028
25 2 5.76205 5.72911 -0.0362693
26 2 7.17183 7.20513 1.40982
27 2 8.64636 5.73168 14.3877
28 2 10.0979 7.19352 1.39694
29 1 11.5298 5.73299 -0.0199772
30 2 12.9813 7.19187 1.41957
31 2 -0.039526 8.64539 14.3959
32 2 1.4053 10.1165 1.40238
33 2 2.84024 8.67913 14.3905
34 2 4.26977 10.1151 1.40187
35 2 5.73035 8.63319 -0.0301803
36 2 7.24537 10.0617 1.41287
37 2 8.64731 8.65563 -0.0276748
38 1 10.111 10.073 1.40251
39 2 11.5218 8.62203 14.3972
40 2 12.9628 10.0793 1.38289
41 2 -0.0262312 11.5295 -0.0510726
42 2 1.41735 12.9421 1.39492
43 1 2.84671 11.5322 14.3784
44 2 4.27032 12.952 1.39147
45 2 5.73537 11.5295 14.3927
46 2 7.20052 12.9701 1.38004
47 1 8.60934 11.531 14.3868
48 2 10.0699 12.9451 1.37024
49 2 11.4971 11.5453 14.4031
50 2 12.9585 12.9653 1.3839
51 2 14.3914 -0.0513637 2.84387
52 2 1.39536 1.38059 4.30121
53 2 2.83862 14.3775 2.84555
54 1 4.27169 1.35293 4.29422
55 2 5.73491 -0.0469897 2.84345
56 2 7.15997 1.35971 4.29804
57 2 8.64071 14.3994 2.84197
58 2 10.0629 1.41223 4.29505
59 2 11.5136 -0.0538964 2.82183
60 2 12.9491 1.39459 4.29959
61 2 14.3967 2.8143 2.82596
62 2 1.37979 4.27659 4.2848
63 2 2.87617 2.83093 2.87031
64 1 4.25909 4.31067 4.32696
65 1 5.76207 2.80839 2.83359
66 2 7.16433 4.25482 4.29092
67 2 8.61462 2.81941 2.83616
68 1 10.0336 4.2877 4.25911
69 2 11.4967 2.82447 2.85028
70 2 12.9243 4.29867 4.30433
71 2 14.3959 5.73722 2.85102
72 2 1.33977 7.17934 4.30789
73 2 2.86899 5.74274 2.84173
74 2 4.2929 7.17136 4.27399
75 1 5.74998 5.72295 2.84244
76 2 7.16885 7.20076 4.28166
77 2 8.59536 5.73888 2.839
78 2 10.1047 7.14509 4.30662
79 2 11.5192 5.7134 2.8351
80 1 12.9386 7.19762 4.26832
81 2 -0.0382282 8.63024 2.84181
82 2 1.39914 10.0837 4.29833
83 2 2.87787 8.68041 2.82645
84 2 4.28651 10.0934 4.30566
85 1 5.72725 8.6514 2.83515
86 2 7.19463 10.0643 4.28013
87 1 8.66478 8.59711 2.87069
88 2 10.0873 10.0723 4.27243
89 2 11.5131 8.6343 2.84338
90 2 12.9714 10.061 4.28417
91 2 -0.00933934 11.5447 2.8551
92 2 1.39521 12.9764 4.30921
93 1 2.84441 11.5438 2.87137
94 2 4.29274 12.987 4.31169
95 2 5.71267 11.4991 2.85069
96 2 7.19102 12.9773 4.30454
97 2 8.63921 11.4931 2.82079
98 2 10.0826 12.9751 4.30556
99 2 11.5268 11.5334 2.85981
100 2 12.9543 12.9675 4.30154
101 2 14.3758 -0.0515556 5.73267
102 2 1.3712 1.36454 7.16241
103 2 2.8351 14.3923 5.74825
104 2 4.29026 1.36326 7.15772
105 2 5.7446 14.3993 5.74964
106 2 7.18536 1.3907 7.19115
107 2 8.64746 14.3992 5.753
108 2 10.0691 1.40402 7.17993
109 2 11.5206 14.3801 5.73108
110 2 12.9385 1.39022 7.17151
111 2 14.3797 2.80169 5.71815
112 2 1.36911 4.28635 7.16191
113 2 2.83697 2.80797 5.72691
114 2 4.28765 4.2671 7.17867
115 2 5.70985 2.81586 5.70099
116 2 7.20209 4.26509 7.20293
117 2 8.64633 2.83005 5.73569
118 2 10.0625 4.27259 7.14457
119 2 11.4828 2.83113 5.70425
120 2 12.9347 4.26909 7.17678
121 2 14.3869 5.75019 5.71633
122 1 1.37393 7.18509 7.17496
123 2 2.82293 5.74283 5.76685
124 2 4.25811 7.16468 7.22868
125 2 5.74363 5.73748 5.72125
126 2 7.19715 7.1704 7.22089
127 2 8.62531 5.72018 5.74509
128 2 10.0727 7.15411 7.18679
129 2 11.5001 5.71887 5.70613
130 2 12.9639 7.17334 7.13835
131 2 14.3953 8.61947 5.72835
132 2 1.39296 10.0643 7.17776
133 2 2.83543 8.63355 5.74648
134 2 4.29031 10.0856 7.18829
135 2 5.75061 8.64336 5.71533
136 2 7.18061 10.0839 7.2094
137 2 8.61706 8.63071 5.7452
138 2 10.0721 10.088 7.18545
139 2 11.5206 8.64913 5.74182
140 2 12.9623 10.0803 7.16772
141 2 14.3807 11.5404 5.72422
142 2 1.39218 12.9546 7.21092
143 2 2.83609 11.5278 5.71506
144 2 4.29219 12.9629 7.18745
145 2 5.74797 11.515 5.7492
146 2 7.18772 12.962 7.19069
147 2 8.65148 11.5212 5.77057
148 2 10.0824 12.945 7.17114
149 1 11.5206 11.4992 5.70984
150 2 12.9529 12.9532 7.1618
151 2 14.4117 14.3825 8.61781
152 2 1.37933 1.34706 10.0543
153 2 2.83345 14.4025 8.66235
154 2 4.29541 1.38246 10.0633
155 2 5.74793 -0.0476101 8.63265
156 2 7.20132 1.40077 10.0637
157 2 8.63548 14.3877 8.61602
158 2 10.0654 1.38958 10.0501
159 2 11.5072 14.3993 8.60931
160 2 12.941 1.39775 10.0323
161 2 14.3877 2.81988 8.59415
162 2 1.3724 4.26501 10.0638
163 2 2.84579 2.8255 8.61636
164 2 4.30675 4.2944 10.0588
165 2 5.75198 2.81596 8.63398
166 2 7.19755 4.27104 10.0673
167 2 8.62046 2.8237 8.62839
168 2 10.0973 4.2785 10.0575
169 2 11.5176 2.84011 8.62736
170 1 12.9846 4.2744 10.0595
171 2 -0.0521905 5.71926 8.60125
172 2 1.43154 7.18071 10.0294
173 1 2.82303 5.67469 8.61418
174 1 4.3183 7.17164 10.0711
175 2 5.73009 5.7142 8.63325
176 2 7.17816 7.1698 10.0677
177 2 8.62706 5.72271 8.63335
178 2 10.0714 7.16564 10.063
179 2 11.5099 5.71176 8.66342
180 2 12.9369 7.16176 10.0399
181 2 14.3959 8.62837 8.61449
182 2 1.38924 10.0954 10.0516
183 2 2.84227 8.57657 8.63984
184 2 4.28939 10.0448 10.0585
185 2 5.7473 8.61959 8.62455
186 2 7.19797 10.0738 10.0512
187 2 8.64295 8.65086 8.62165
188 2 10.0642 10.0859 10.0663
189 2 11.4981 8.64161 8.62896
190 2 12.9535 10.0849 10.0698
191 2 14.3934 11.531 8.61885
192 1 1.39045 12.9393 10.0696
193 2 2.84839 11.5372 8.62211
194 2 4.25801 12.9918 10.0689
195 2 5.77674 11.5365 8.62393
196 2 7.19547 12.973 10.0506
197 1 8.62858 11.5238 8.62777
198 2 10.073 12.9675 10.0473
199 2 11.4861 11.5149 8.59004
200 2 12.9818 12.9666 10.0607
201 2 -0.0310459 14.3897 11.5
202 2 1.39391 1.43484 12.9542
203 1 2.83865 -0.0115621 11.526
204 2 4.30794 1.41023 12.9503
205 2 5.72306 -0.0307002 11.5001
206 2 7.18908 1.40327 12.9346
207 2 8.62024 -0.0467684 11.4965
208 2 10.0602 1.37176 12.9512
209 2 11.5084 14.4066 11.5242
210 2 12.9425 1.37218 12.9638
211 2 14.4005 2.84664 11.534
212 1 1.40619 4.32372 12.9138
213 2 2.85355 2.82523 11.5147
214 2 4.29127 4.29033 12.9532
215 2 5.76075 2.82354 11.5045
216 2 7.17567 4.27481 12.9336
217 2 8.62572 2.83846 11.5062
218 2 10.0843 4.31291 12.9671
219 2 11.5074 2.86396 11.498
220 2 12.9728 4.30674 12.9494
221 2 14.3727 5.74408 11.5099
222 2 1.4191 7.18236 12.9587
223 2 2.85892 5.75558 11.4814
224 2 4.28962 7.18903 12.9115
225 2 5.7594 5.72644 11.5038
226 2 7.18141 7.17258 12.9244
227 2 8.65927 5.72291 11.5092
228 2 10.0956 7.15856 12.9533
229 1 11.5281 5.72928 11.5076
230 2 12.9405 7.18284 12.9666
231 2 14.4086 8.64669 11.517
232 2 1.38991 10.0765 12.9523
233 1 2.81813 8.64075 11.501
234 2 4.28004 10.0698 12.9321
235 2 5.71914 8.62724 11.5057
236 2 7.20776 10.0779 12.9432
237 2 8.64068 8.62284 11.5019
238 2 10.0691 10.0936 12.9779
239 2 11.5226 8.60803 11.4956
240 2 12.9513 10.0908 12.9536
241 2 14.4016 11.5183 11.5034
242 2 1.40814 12.9713 12.9167
243 2 2.84215 11.5379 11.5258
244 2 4.28918 12.991 12.9404
245 2 5.75249 11.5362 11.5024
246 2 7.19196 12.9774 12.9493
247 2 8.62227 11.5285 11.4901
248 2 10.0711 12.9655 12.9584
249 2 11.5077 11.5202 11.4892
250 2 12.9449 12.9622 12.9493
ITEM: TIMESTEP
15
ITEM: NUMBER OF ATOMS
250
ITEM: BOX BOUNDS xy xz yz pp pp pp
-6.4123050692981867e-02 1.4423368999852803e+01 9.5957315680967672e-03
-5.5963139162043325e-02 1.4411531460903488e+01 -3.4978240828044486e-04
-5.4591186813486160e-02 1.4404591186813487e+01 5.5683217414419194e-03
ITEM: ATOMS id type x y z
1 2 14.3818 -0.0394215 -0.0464845
2 2 1.37046 1.41868 1.39355
3 2 2.83561 14.3891 14.3748
4 2 4.29675 1.39135 1.42239
5 2 5.73916 -0.0457116 14.382
6 2 7.17725 1.37079 1.3764
7 2 8.65562 14.3958 14.3864
8 2 10.0719 1.36768 1.38486
9 1 11.5177 14.3985 14.4022
10 2 12.9599 1.37266 1.38053
11 1 14.3975 2.83541 14.3909
12 2 1.37121 4.27254 1.35111
13 2 2.79862 2.85838 14.3721
14 2 4.30659 4.26692 1.42905
15 2 5.75318 2.82909 -0.0542107
16 2 7.17018 4.25734 1.38369
17 2 8.63007 2.828 14.3809
18 2 10.0777 4.28063 1.41032
19 2 11.5287 2.8223 -0.0507733
20 2 12.9784 4.27444 1.39925
21 2 14.4088 5.70721 14.3992
22 2 1.37767 7.18016 1.40288
23 2 2.83096 5.73728 14.3937
24 2 4.3003 7.17212 1.40303
25 2 5.76071 5.72928 -0.0363052
26 2 7.17189 7.20514 1.41026
27 2 8.6481 5.73168 14.3877
28 2 10.1006 7.19366 1.39726
29 1 11.534 5.7333 -0.0198295
30 2 12.9867 7.19183 1.41951
31 2 -0.0465566 8.64539 14.3959
32 2 1.3999 10.1168 1.40256
33 2 2.83613 8.67924 14.3908
34 2 4.26708 10.1153 1.40218
35 2 5.729 8.63353 -0.030019
36 2 7.2457 10.0617 1.41301
37 2 8.6489 8.65572 -0.0272569
38 1 10.1138 10.073 1.40249
39 2 11.5258 8.62234 14.3973
40 2 12.9686 10.0793 1.38275
41 2 -0.0330597 11.5297 -0.0509008
42 2 1.41208 12.9418 1.39511
43 1 2.84248 11.5321 14.3785
44 2 4.26704 12.9517 1.39152
45 2 5.73364 11.5296 14.3927
46 2 7.20057 12.97 1.37981
47 1 8.61048 11.5312 14.3867
48 2 10.0727 12.9452 1.36953
49 2 11.501 11.5451 14.4032
50 2 12.964 12.9653 1.38359
51 2 14.3985 -0.0516617 2.84379
52 2 1.38983 1.38062 4.30114
53 2 2.83456 14.3777 2.84569
54 1 4.26877 1.35258 4.29443
55 2 5.73308 -0.0470204 2.84346
56 2 7.15936 1.35999 4.29776
57 2 8.64217 14.3995 2.84184
58 2 10.0656 1.41231 4.29501
59 2 11.5179 -0.053946 2.82159
60 2 12.9548 1.39466 4.29953
61 2 14.4038 2.81436 2.82588
62 2 1.37425 4.27659 4.28454
63 2 2.87258 2.83086 2.87062
64 1 4.256 4.31054 4.32728
65 1 5.76056 2.8085 2.83324
66 2 7.1635 4.25472 4.2906
67 2 8.6161 2.81975 2.83608
68 1 10.0364 4.28759 4.25905
69 2 11.5009 2.82469 2.85033
70 2 12.9299 4.29886 4.30443
71 2 14.4028 5.73742 2.8511
72 2 1.3341 7.17921 4.30761
73 2 2.86537 5.74265 2.84186
74 2 4.29045 7.17141 4.27363
75 1 5.74854 5.72302 2.84222
76 2 7.16862 7.20051 4.28131
77 2 8.59676 5.73846 2.8391
78 2 10.1072 7.14525 4.3064
79 2 11.5234 5.71352 2.83557
80 1 12.9446 7.19782 4.26812
81 2 -0.0456238 8.6303 2.84185
82 2 1.39354 10.0837 4.29794
83 2 2.87393 8.68041 2.82632
84 2 4.28384 10.0932 4.30518
85 1 5.72629 8.65135 2.8351
86 2 7.19463 10.0641 4.27978
87 1 8.66571 8.59693 2.87092
88 2 10.0901 10.0721 4.27237
89 2 11.5172 8.63435 2.84336
90 2 12.9769 10.0611 4.28422
91 2 -0.0165234 11.5448 2.85502
92 2 1.38976 12.9762 4.30897
93 1 2.8402 11.5437 2.87143
94 2 4.28967 12.9866 4.31156
95 2 5.71131 11.4989 2.85044
96 2 7.19093 12.9774 4.30445
97 2 8.64095 11.4929 2.82052
98 2 10.0857 12.975 4.30568
99 2 11.5307 11.5331 2.85948
100 2 12.9596 12.9672 4.30154
101 2 14.3829 -0.0518423 5.7323
102 2 1.36536 1.36445 7.16211
103 2 2.8309 14.3923 5.74808
104 2 4.28721 1.36294 7.15785
105 2 5.74292 14.3991 5.74957
106 2 7.18513 1.39086 7.19112
107 2 8.64874 14.3992 5.75294
108 2 10.0719 1.40425 7.17994
109 2 11.5248 14.3799 5.73118
110 2 12.9444 1.39015 7.17136
111 2 14.387 2.80171 5.71792
112 2 1.36351 4.2866 7.16173
113 2 2.83295 2.80777 5.72658
114 2 4.28435 4.26707 7.17886
115 2 5.70776 2.81574 5.70075
116 2 7.20183 4.26516 7.20302
117 2 8.64742 2.83041 5.7353
118 2 10.0657 4.27266 7.14443
119 2 11.4869 2.83124 5.70401
120 2 12.9407 4.26926 7.17647
121 2 14.3943 5.75063 5.71604
122 1 1.3681 7.18525 7.17448
123 2 2.81862 5.74291 5.76662
124 2 4.25457 7.16431 7.22893
125 2 5.74162 5.73739 5.72107
126 2 7.19683 7.17 7.22108
127 2 8.62667 5.7198 5.74472
128 2 10.0757 7.15383 7.18672
129 2 11.5044 5.71909 5.70547
130 2 12.9699 7.1733 7.13799
131 2 14.4026 8.61928 5.72801
132 2 1.38715 10.064 7.17755
133 2 2.83108 8.6333 5.74624
134 2 4.28712 10.0855 7.18836
135 2 5.74917 8.6435 5.7152
136 2 7.18058 10.0839 7.20984
137 2 8.61817 8.63064 5.74528
138 2 10.0749 10.0883 7.18544
139 2 11.5249 8.64894 5.74157
140 2 12.9681 10.0803 7.16745
141 2 14.3879 11.5403 5.72381
142 2 1.3864 12.9544 7.21067
143 2 2.83185 11.5275 5.71481
144 2 4.28909 12.9628 7.1876
145 2 5.74651 11.5148 5.74925
146 2 7.18774 12.9618 7.19089
147 2 8.65289 11.5211 5.77055
148 2 10.0851 12.9445 7.17114
149 1 11.5248 11.499 5.70982
150 2 12.9587 12.9528 7.1616
151 2 14.4192 14.3821 8.61778
152 2 1.37352 1.34677 10.0545
153 2 2.82867 14.4022 8.66265
154 2 4.29199 1.38227 10.0636
155 2 5.74626 -0.0477147 8.63298
156 2 7.20124 1.40088 10.0639
157 2 8.63692 14.3878 8.61599
158 2 10.0687 1.38978 10.0501
159 2 11.5116 14.3992 8.60924
160 2 12.9473 1.39757 10.0322
161 2 14.3951 2.82001 8.59413
162 2 1.36684 4.26511 10.0636
163 2 2.84136 2.82523 8.61637
164 2 4.30339 4.29455 10.0589
165 2 5.75025 2.81595 8.63426
166 2 7.19745 4.27122 10.0675
167 2 8.62207 2.8239 8.6286
168 2 10.1011 4.27879 10.0577
169 2 11.5224 2.84022 8.62743
170 1 12.9908 4.27431 10.0591
171 2 -0.0589396 5.71936 8.60124
172 2 1.4265 7.1805 10.0294
173 1 2.81865 5.67426 8.61417
174 1 4.31533 7.17168 10.0713
175 2 5.72795 5.71428 8.63354
176 2 7.17785 7.16971 10.0678
177 2 8.62871 5.72265 8.63359
178 2 10.0748 7.16539 10.0631
179 2 11.5149 5.71167 8.66356
180 2 12.943 7.16153 10.0401
181 2 14.4035 8.62796 8.61434
182 2 1.3836 10.095 10.0517
183 2 2.8378 8.57586 8.63982
184 2 4.28584 10.0445 10.0585
185 2 5.74538 8.61936 8.62478
186 2 7.19782 10.0738 10.0511
187 2 8.64444 8.65069 8.62163
188 2 10.0668 10.0861 10.0662
189 2 11.5025 8.64172 8.62903
190 2 12.9596 10.0849 10.0698
191 2 14.4008 11.5309 8.61883
192 1 1.38438 12.9389 10.0694
193 2 2.84373 11.5372 8.62222
194 2 4.25444 12.992 10.0692
195 2 5.77507 11.5365 8.62416
196 2 7.19545 12.9729 10.0506
197 1 8.6298 11.5238 8.62785
198 2 10.0757 12.9673 10.0471
199 2 11.4903 11.5148 8.59002
200 2 12.9879 12.9664 10.0608
201 2 -0.0377186 14.3893 11.5002
202 2 1.388 1.43509 12.9543
203 1 2.83422 -0.0113073 11.5263
204 2 4.3046 1.41034 12.9503
205 2 5.72125 -0.0307898 11.5003
206 2 7.18909 1.40351 12.9345
207 2 8.62184 -0.0466149 11.4965
208 2 10.0637 1.37177 12.9514
209 2 11.513 14.4065 11.5244
210 2 12.9489 1.37223 12.9642
211 2 14.4079 2.84737 11.5343
212 1 1.40057 4.32413 12.9139
213 2 2.84882 2.82553 11.5151
214 2 4.28804 4.29052 12.9533
215 2 5.75901 2.82357 11.5045
216 2 7.17578 4.27496 12.9334
217 2 8.62768 2.8387 11.5063
218 2 10.0879 4.31332 12.967
219 2 11.5127 2.86435 11.498
220 2 12.979 4.30718 12.9498
221 2 14.3801 5.74378 11.5099
222 2 1.41351 7.18253 12.9587
223 2 2.85452 5.75568 11.4815
224 2 4.28638 7.1893 12.9113
225 2 5.75755 5.72665 11.5037
226 2 7.18139 7.17258 12.9241
227 2 8.66119 5.72294 11.5092
228 2 10.0989 7.1584 12.9533
229 1 11.5327 5.72962 11.5079
230 2 12.9462 7.18265 12.9669
231 2 14.4161 8.64663 11.5174
232 2 1.38457 10.0765 12.9526
233 1 2.81363 8.64093 11.5013
234 2 4.27658 10.07 12.932
235 2 5.71712 8.62736 11.5057
236 2 7.20777 10.078 12.9433
237 2 8.6422 8.62268 11.5019
238 2 10.0716 10.0938 12.9781
239 2 11.527 8.6082 11.4956
240 2 12.9572 10.091 12.9537
241 2 14.4093 11.5184 11.5036
242 2 1.40291 12.9713 12.9168
243 2 2.8374 11.5382 11.5257
244 2 4.28557 12.991 12.9405
245 2 5.75068 11.5363 11.5025
246 2 7.19199 12.9774 12.9494
247 2 8.62362 11.5286 11.4901
248 2 10.074 12.9656 12.9589
249 2 11.5119 11.5201 11.4893
250 2 12.9507 12.9622 12.9495
ITEM: TIMESTEP
31
ITEM: NUMBER OF ATOMS
250
ITEM: BOX BOUNDS xy xz yz pp pp pp
-4.9659967239866223e-02 1.4408905916399688e+01 9.5957315680967672e-03
-5.5963139162043325e-02 1.4411531460903488e+01 -3.4978240828044486e-04
-5.4591186813486160e-02 1.4404591186813487e+01 5.5683217414419194e-03
ITEM: ATOMS id type x y z
1 2 14.367 -0.0391104 -0.0469375
2 2 1.38212 1.41793 1.39311
3 2 2.84459 14.3887 14.3743
4 2 4.30228 1.39087 1.42211
5 2 5.74248 -0.0454454 14.3823
6 2 7.17791 1.37026 1.37607
7 2 8.65272 14.3951 14.3864
8 2 10.0653 1.36792 1.38543
9 1 11.5082 14.3983 14.4025
10 2 12.9482 1.37256 1.38119
11 1 14.3826 2.83533 14.3903
12 2 1.38261 4.27268 1.35099
13 2 2.80811 2.85761 14.3721
14 2 4.31197 4.26679 1.42851
15 2 5.75645 2.82888 -0.0536894
16 2 7.17085 4.25736 1.38327
17 2 8.62671 2.82756 14.3809
18 2 10.0709 4.28009 1.41051
19 2 11.519 2.82209 -0.0506164
20 2 12.9669 4.27396 1.4
21 2 14.3941 5.70734 14.3995
22 2 1.38905 7.18034 1.40208
23 2 2.83983 5.73725 14.3934
24 2 4.30492 7.17192 1.40257
25 2 5.7634 5.72893 -0.0362271
26 2 7.17177 7.20514 1.40939
27 2 8.64466 5.73173 14.3877
28 2 10.0951 7.19341 1.39662
29 1 11.5257 5.73271 -0.0200718
30 2 12.9759 7.19196 1.41968
31 2 -0.0324665 8.64544 14.3958
32 2 1.41072 10.1162 1.4022
33 2 2.84437 8.67905 14.3901
34 2 4.27247 10.115 1.40154
35 2 5.73168 8.63284 -0.030344
36 2 7.24502 10.0617 1.41272
37 2 8.64571 8.65555 -0.0281022
38 1 10.1082 10.073 1.40251
39 2 11.5179 8.62175 14.397
40 2 12.9571 10.0793 1.38305
41 2 -0.0194196 11.5294 -0.0512367
42 2 1.42259 12.9424 1.39471
43 1 2.85093 11.5323 14.3781
44 2 4.27362 12.9523 1.39138
45 2 5.73711 11.5295 14.3928
46 2 7.20045 12.9702 1.38022
47 1 8.60817 11.5309 14.387
48 2 10.0671 12.945 1.37092
49 2 11.4932 11.5455 14.4031
50 2 12.953 12.9654 1.3842
51 2 14.3843 -0.0510756 2.84395
52 2 1.40091 1.38049 4.30129
53 2 2.84271 14.3773 2.84541
54 1 4.27464 1.35323 4.29404
55 2 5.73675 -0.0469612 2.84342
56 2 7.16059 1.3594 4.29834
57 2 8.63922 14.3993 2.84209
58 2 10.0601 1.41213 4.29507
59 2 11.5092 -0.0538484 2.82206
60 2 12.9434 1.3945 4.29961
61 2 14.3896 2.81425 2.82606
62 2 1.38536 4.27654 4.28506
63 2 2.87982 2.83095 2.87002
64 1 4.26221 4.31073 4.32666
65 1 5.76364 2.80826 2.83395
66 2 7.16519 4.25492 4.29125
67 2 8.61313 2.81909 2.83622
68 1 10.0307 4.28782 4.25916
69 2 11.4925 2.82426 2.85024
70 2 12.9187 4.29847 4.30422
71 2 14.3891 5.73702 2.85098
72 2 1.34548 7.17947 4.30817
73 2 2.87264 5.74278 2.84164
74 2 4.29534 7.17129 4.27437
75 1 5.75145 5.72283 2.84268
76 2 7.16908 7.20103 4.28201
77 2 8.59394 5.73932 2.8389
78 2 10.1023 7.14493 4.30683
79 2 11.515 5.7133 2.83462
80 1 12.9327 7.19742 4.2685
81 2 -0.0308183 8.6302 2.8418
82 2 1.40474 10.0837 4.2987
83 2 2.88182 8.68041 2.82658
84 2 4.28917 10.0935 4.30613
85 1 5.7282 8.65146 2.83519
86 2 7.19461 10.0645 4.28046
87 1 8.66385 8.5973 2.87045
88 2 10.0844 10.0725 4.27248
89 2 11.5089 8.63427 2.84339
90 2 12.9659 10.0609 4.28411
91 2 -0.0021873 11.5446 2.85515
92 2 1.40063 12.9766 4.30946
93 1 2.84861 11.544 2.8713
94 2 4.29581 12.9873 4.31181
95 2 5.71404 11.4992 2.85091
96 2 7.19107 12.9772 4.30462
97 2 8.63742 11.4933 2.82104
98 2 10.0795 12.9753 4.30544
99 2 11.5228 11.5336 2.86013
100 2 12.9489 12.9679 4.30154
101 2 14.3686 -0.0513066 5.73304
102 2 1.37701 1.3646 7.1627
103 2 2.83929 14.3924 5.74843
104 2 4.29333 1.36356 7.15762
105 2 5.74628 14.3994 5.74976
106 2 7.18563 1.39053 7.19122
107 2 8.64613 14.3991 5.75307
108 2 10.0663 1.40378 7.17991
109 2 11.5164 14.3802 5.73096
110 2 12.9325 1.39026 7.17162
111 2 14.3723 2.80162 5.71833
112 2 1.37469 4.28605 7.16206
113 2 2.841 2.8081 5.72726
114 2 4.29096 4.26707 7.17848
115 2 5.71198 2.81592 5.70124
116 2 7.20241 4.26502 7.20287
117 2 8.64524 2.82969 5.73609
118 2 10.0594 4.27251 7.1447
119 2 11.4786 2.83099 5.70445
120 2 12.9288 4.26888 7.17705
121 2 14.3796 5.74973 5.71656
122 1 1.37977 7.18493 7.1754
123 2 2.82726 5.7427 5.76708
124 2 4.26163 7.16501 7.22844
125 2 5.74566 5.73754 5.72144
126 2 7.19745 7.17077 7.22073
127 2 8.62397 5.72056 5.74545
128 2 10.0696 7.15434 7.18687
129 2 11.4959 5.71865 5.70677
130 2 12.9578 7.17337 7.13865
131 2 14.388 8.61966 5.72865
132 2 1.39872 10.0646 7.17793
133 2 2.83978 8.6338 5.74671
134 2 4.29346 10.0858 7.18824
135 2 5.75202 8.64322 5.71546
136 2 7.18063 10.0838 7.20899
137 2 8.61594 8.63075 5.74512
138 2 10.0693 10.0877 7.18547
139 2 11.5162 8.64928 5.74205
140 2 12.9565 10.0802 7.16797
141 2 14.3735 11.5405 5.72462
142 2 1.3979 12.9548 7.21118
143 2 2.84033 11.5282 5.71531
144 2 4.29527 12.9631 7.18733
145 2 5.74939 11.5152 5.74917
146 2 7.18767 12.9621 7.19052
147 2 8.65 11.5213 5.7706
148 2 10.0797 12.9455 7.17113
149 1 11.5163 11.4993 5.70985
150 2 12.9472 12.9536 7.16199
151 2 14.4041 14.3829 8.61783
152 2 1.3851 1.34734 10.054
153 2 2.8382 14.4028 8.66206
154 2 4.29882 1.38267 10.0629
155 2 5.7496 -0.0475048 8.63235
156 2 7.20142 1.40068 10.0636
157 2 8.63405 14.3877 8.61607
158 2 10.0621 1.3894 10.0501
159 2 11.5028 14.3995 8.60938
160 2 12.9347 1.39793 10.0323
161 2 14.3803 2.81972 8.59414
162 2 1.37794 4.2649 10.064
163 2 2.85021 2.82575 8.61634
164 2 4.31011 4.29425 10.0587
165 2 5.75375 2.81597 8.63373
166 2 7.19772 4.27089 10.0672
167 2 8.61892 2.8235 8.62821
168 2 10.0936 4.27825 10.0573
169 2 11.5128 2.84 8.62729
170 1 12.9783 4.27449 10.0599
171 2 -0.0454323 5.71912 8.60123
172 2 1.43658 7.1809 10.0294
173 1 2.82739 5.67508 8.61418
174 1 4.32125 7.17157 10.0709
175 2 5.73223 5.71409 8.63298
176 2 7.17847 7.16987 10.0677
177 2 8.62546 5.72277 8.63315
178 2 10.0681 7.16589 10.0628
179 2 11.505 5.71184 8.66327
180 2 12.9308 7.162 10.0398
181 2 14.3883 8.62876 8.6146
182 2 1.39484 10.0958 10.0514
183 2 2.84669 8.57724 8.63983
184 2 4.2929 10.045 10.0583
185 2 5.74919 8.61979 8.62432
186 2 7.19808 10.0738 10.0514
187 2 8.64145 8.65098 8.6217
188 2 10.0616 10.0857 10.0665
189 2 11.4937 8.64148 8.62886
190 2 12.9473 10.0849 10.0697
191 2 14.386 11.5311 8.61886
192 1 1.39648 12.9396 10.0698
193 2 2.85301 11.5373 8.62199
194 2 4.26154 12.9915 10.0686
195 2 5.77838 11.5365 8.62373
196 2 7.19548 12.9731 10.0507
197 1 8.62733 11.5239 8.62772
198 2 10.0703 12.9676 10.0475
199 2 11.4818 11.515 8.59006
200 2 12.9756 12.9667 10.0606
201 2 -0.0243853 14.3901 11.4998
202 2 1.39982 1.43461 12.9542
203 1 2.84308 -0.0117901 11.5256
204 2 4.3113 1.41016 12.9504
205 2 5.72484 -0.0305724 11.4999
206 2 7.18912 1.40308 12.9347
207 2 8.61866 -0.0468893 11.4964
208 2 10.0568 1.37181 12.9511
209 2 11.5038 14.4067 11.5241
210 2 12.9362 1.37216 12.9635
211 2 14.393 2.84592 11.5337
212 1 1.41183 4.32333 12.9137
213 2 2.85827 2.82495 11.5143
214 2 4.29451 4.29015 12.953
215 2 5.76252 2.82354 11.5045
216 2 7.17562 4.27473 12.9338
217 2 8.62383 2.83828 11.5062
218 2 10.0807 4.31256 12.9671
219 2 11.5022 2.8636 11.4981
220 2 12.9668 4.30635 12.9491
221 2 14.3654 5.74439 11.5099
222 2 1.42469 7.18222 12.9588
223 2 2.86331 5.75549 11.4812
224 2 4.29284 7.18879 12.9117
225 2 5.76126 5.72623 11.5039
226 2 7.18142 7.17261 12.9246
227 2 8.65742 5.72293 11.5091
228 2 10.0924 7.15874 12.9533
229 1 11.5235 5.72899 11.5074
230 2 12.935 7.18307 12.9664
231 2 14.4011 8.64678 11.5167
232 2 1.39524 10.0765 12.9521
233 1 2.82257 8.64058 11.5007
234 2 4.28349 10.0696 12.9321
235 2 5.72113 8.62711 11.5057
236 2 7.20771 10.0778 12.9431
237 2 8.63917 8.62299 11.5019
238 2 10.0667 10.0933 12.9776
239 2 11.5182 8.60786 11.4956
240 2 12.9454 10.0907 12.9536
241 2 14.3938 11.5182 11.5032
242 2 1.41335 12.9714 12.9165
243 2 2.84686 11.5377 11.5259
244 2 4.29277 12.9909 12.9403
245 2 5.75426 11.5361 11.5022
246 2 7.19194 12.9774 12.9492
247 2 8.62089 11.5283 11.49
248 2 10.0682 12.9653 12.9579
249 2 11.5036 11.5202 11.4892
250 2 12.9391 12.9623 12.9492
ITEM: TIMESTEP
0
ITEM: NUMBER OF ATOMS
250
ITEM: BOX BOUNDS xy xz yz pp pp pp
-5.6891508966424871e-02 1.4416137458126245e+01 9.5957315680967672e-03
-5.5963139162043325e-02 1.4411531460903488e+01 -3.4978240828044486e-04
-5.4591186813486160e-02 1.4404591186813487e+01 5.5683217414419194e-03
ITEM: ATOMS id type x y z
1 2 14.3744 -0.0392796 -0.0467099
2 2 1.37627 1.4183 1.39333
3 2 2.8401 14.3889 14.3746
4 2 4.29949 1.39112 1.42225
5 2 5.74081 -0.045595 14.3822
6 2 7.17756 1.37053 1.37625
7 2 8.65416 14.3954 14.3864
8 2 10.0686 1.36779 1.38515
9 1 11.5129 14.3984 14.4024
10 2 12.9541 1.3726 1.38085
11 1 14.39 2.83536 14.3906
12 2 1.37688 4.27261 1.35104
13 2 2.80335 2.85799 14.3721
14 2 4.30926 4.26688 1.42877
15 2 5.75479 2.82897 -0.0539376
16 2 7.1705 4.25735 1.38348
17 2 8.62837 2.82776 14.3809
18 2 10.0743 4.28035 1.41042
19 2 11.5238 2.82218 -0.0507131
20 2 12.9726 4.27418 1.3996
21 2 14.4014 5.70726 14.3993
22 2 1.38333 7.18024 1.40245
23 2 2.83538 5.73726 14.3935
24 2 4.30261 7.17203 1.4028
25 2 5.76205 5.72911 -0.0362693
26 2 7.17183 7.20513 1.40982
27 2 8.64636 5.73168 14.3877
28 2 10.0979 7.19352 1.39694
29 1 11.5298 5.73299 -0.0199772
30 2 12.9813 7.19187 1.41957
31 2 -0.039526 8.64539 14.3959
32 2 1.4053 10.1165 1.40238
33 2 2.84024 8.67913 14.3905
34 2 4.26977 10.1151 1.40187
35 2 5.73035 8.63319 -0.0301803
36 2 7.24537 10.0617 1.41287
37 2 8.64731 8.65563 -0.0276748
38 1 10.111 10.073 1.40251
39 2 11.5218 8.62203 14.3972
40 2 12.9628 10.0793 1.38289
41 2 -0.0262312 11.5295 -0.0510726
42 2 1.41735 12.9421 1.39492
43 1 2.84671 11.5322 14.3784
44 2 4.27032 12.952 1.39147
45 2 5.73537 11.5295 14.3927
46 2 7.20052 12.9701 1.38004
47 1 8.60934 11.531 14.3868
48 2 10.0699 12.9451 1.37024
49 2 11.4971 11.5453 14.4031
50 2 12.9585 12.9653 1.3839
51 2 14.3914 -0.0513637 2.84387
52 2 1.39536 1.38059 4.30121
53 2 2.83862 14.3775 2.84555
54 1 4.27169 1.35293 4.29422
55 2 5.73491 -0.0469897 2.84345
56 2 7.15997 1.35971 4.29804
57 2 8.64071 14.3994 2.84197
58 2 10.0629 1.41223 4.29505
59 2 11.5136 -0.0538964 2.82183
60 2 12.9491 1.39459 4.29959
61 2 14.3967 2.8143 2.82596
62 2 1.37979 4.27659 4.2848
63 2 2.87617 2.83093 2.87031
64 1 4.25909 4.31067 4.32696
65 1 5.76207 2.80839 2.83359
66 2 7.16433 4.25482 4.29092
67 2 8.61462 2.81941 2.83616
68 1 10.0336 4.2877 4.25911
69 2 11.4967 2.82447 2.85028
70 2 12.9243 4.29867 4.30433
71 2 14.3959 5.73722 2.85102
72 2 1.33977 7.17934 4.30789
73 2 2.86899 5.74274 2.84173
74 2 4.2929 7.17136 4.27399
75 1 5.74998 5.72295 2.84244
76 2 7.16885 7.20076 4.28166
77 2 8.59536 5.73888 2.839
78 2 10.1047 7.14509 4.30662
79 2 11.5192 5.7134 2.8351
80 1 12.9386 7.19762 4.26832
81 2 -0.0382282 8.63024 2.84181
82 2 1.39914 10.0837 4.29833
83 2 2.87787 8.68041 2.82645
84 2 4.28651 10.0934 4.30566
85 1 5.72725 8.6514 2.83515
86 2 7.19463 10.0643 4.28013
87 1 8.66478 8.59711 2.87069
88 2 10.0873 10.0723 4.27243
89 2 11.5131 8.6343 2.84338
90 2 12.9714 10.061 4.28417
91 2 -0.00933934 11.5447 2.8551
92 2 1.39521 12.9764 4.30921
93 1 2.84441 11.5438 2.87137
94 2 4.29274 12.987 4.31169
95 2 5.71267 11.4991 2.85069
96 2 7.19102 12.9773 4.30454
97 2 8.63921 11.4931 2.82079
98 2 10.0826 12.9751 4.30556
99 2 11.5268 11.5334 2.85981
100 2 12.9543 12.9675 4.30154
101 2 14.3758 -0.0515556 5.73267
102 2 1.3712 1.36454 7.16241
103 2 2.8351 14.3923 5.74825
104 2 4.29026 1.36326 7.15772
105 2 5.7446 14.3993 5.74964
106 2 7.18536 1.3907 7.19115
107 2 8.64746 14.3992 5.753
108 2 10.0691 1.40402 7.17993
109 2 11.5206 14.3801 5.73108
110 2 12.9385 1.39022 7.17151
111 2 14.3797 2.80169 5.71815
112 2 1.36911 4.28635 7.16191
113 2 2.83697 2.80797 5.72691
114 2 4.28765 4.2671 7.17867
115 2 5.70985 2.81586 5.70099
116 2 7.20209 4.26509 7.20293
117 2 8.64633 2.83005 5.73569
118 2 10.0625 4.27259 7.14457
119 2 11.4828 2.83113 5.70425
120 2 12.9347 4.26909 7.17678
121 2 14.3869 5.75019 5.71633
122 1 1.37393 7.18509 7.17496
123 2 2.82293 5.74283 5.76685
124 2 4.25811 7.16468 7.22868
125 2 5.74363 5.73748 5.72125
126 2 7.19715 7.1704 7.22089
127 2 8.62531 5.72018 5.74509
128 2 10.0727 7.15411 7.18679
129 2 11.5001 5.71887 5.70613
130 2 12.9639 7.17334 7.13835
131 2 14.3953 8.61947 5.72835
132 2 1.39296 10.0643 7.17776
133 2 2.83543 8.63355 5.74648
134 2 4.29031 10.0856 7.18829
135 2 5.75061 8.64336 5.71533
136 2 7.18061 10.0839 7.2094
137 2 8.61706 8.63071 5.7452
138 2 10.0721 10.088 7.18545
139 2 11.5206 8.64913 5.74182
140 2 12.9623 10.0803 7.16772
141 2 14.3807 11.5404 5.72422
142 2 1.39218 12.9546 7.21092
143 2 2.83609 11.5278 5.71506
144 2 4.29219 12.9629 7.18745
145 2 5.74797 11.515 5.7492
146 2 7.18772 12.962 7.19069
147 2 8.65148 11.5212 5.77057
148 2 10.0824 12.945 7.17114
149 1 11.5206 11.4992 5.70984
150 2 12.9529 12.9532 7.1618
151 2 14.4117 14.3825 8.61781
152 2 1.37933 1.34706 10.0543
153 2 2.83345 14.4025 8.66235
154 2 4.29541 1.38246 10.0633
155 2 5.74793 -0.0476101 8.63265
156 2 7.20132 1.40077 10.0637
157 2 8.63548 14.3877 8.61602
158 2 10.0654 1.38958 10.0501
159 2 11.5072 14.3993 8.60931
160 2 12.941 1.39775 10.0323
161 2 14.3877 2.81988 8.59415
162 2 1.3724 4.26501 10.0638
163 2 2.84579 2.8255 8.61636
164 2 4.30675 4.2944 10.0588
165 2 5.75198 2.81596 8.63398
166 2 7.19755 4.27104 10.0673
167 2 8.62046 2.8237 8.62839
168 2 10.0973 4.2785 10.0575
169 2 11.5176 2.84011 8.62736
170 1 12.9846 4.2744 10.0595
171 2 -0.0521905 5.71926 8.60125
172 2 1.43154 7.18071 10.0294
173 1 2.82303 5.67469 8.61418
174 1 4.3183 7.17164 10.0711
175 2 5.73009 5.7142 8.63325
176 2 7.17816 7.1698 10.0677
177 2 8.62706 5.72271 8.63335
178 2 10.0714 7.16564 10.063
179 2 11.5099 5.71176 8.66342
180 2 12.9369 7.16176 10.0399
181 2 14.3959 8.62837 8.61449
182 2 1.38924 10.0954 10.0516
183 2 2.84227 8.57657 8.63984
184 2 4.28939 10.0448 10.0585
185 2 5.7473 8.61959 8.62455
186 2 7.19797 10.0738 10.0512
187 2 8.64295 8.65086 8.62165
188 2 10.0642 10.0859 10.0663
189 2 11.4981 8.64161 8.62896
190 2 12.9535 10.0849 10.0698
191 2 14.3934 11.531 8.61885
192 1 1.39045 12.9393 10.0696
193 2 2.84839 11.5372 8.62211
194 2 4.25801 12.9918 10.0689
195 2 5.77674 11.5365 8.62393
196 2 7.19547 12.973 10.0506
197 1 8.62858 11.5238 8.62777
198 2 10.073 12.9675 10.0473
199 2 11.4861 11.5149 8.59004
200 2 12.9818 12.9666 10.0607
201 2 -0.0310459 14.3897 11.5
202 2 1.39391 1.43484 12.9542
203 1 2.83865 -0.0115621 11.526
204 2 4.30794 1.41023 12.9503
205 2 5.72306 -0.0307002 11.5001
206 2 7.18908 1.40327 12.9346
207 2 8.62024 -0.0467684 11.4965
208 2 10.0602 1.37176 12.9512
209 2 11.5084 14.4066 11.5242
210 2 12.9425 1.37218 12.9638
211 2 14.4005 2.84664 11.534
212 1 1.40619 4.32372 12.9138
213 2 2.85355 2.82523 11.5147
214 2 4.29127 4.29033 12.9532
215 2 5.76075 2.82354 11.5045
216 2 7.17567 4.27481 12.9336
217 2 8.62572 2.83846 11.5062
218 2 10.0843 4.31291 12.9671
219 2 11.5074 2.86396 11.498
220 2 12.9728 4.30674 12.9494
221 2 14.3727 5.74408 11.5099
222 2 1.4191 7.18236 12.9587