
     Program PWSCF v.7.5 starts on 15Mar2026 at 15:52: 4 

     This program is part of the open-source Quantum ESPRESSO suite
     for quantum simulation of materials; please cite
         "P. Giannozzi et al., J. Phys.:Condens. Matter 21 395502 (2009);
         "P. Giannozzi et al., J. Phys.:Condens. Matter 29 465901 (2017);
         "P. Giannozzi et al., J. Chem. Phys. 152 154105 (2020);
          URL http://www.quantum-espresso.org", 
     in publications or presentations arising from this work. More details at
     http://www.quantum-espresso.org/quote

     Parallel version (MPI), running on     1 processors

     MPI processes distributed on     1 nodes
     3478 MiB available memory on the printing compute node when the environment starts

     Reading input from espresso.pwi
Warning: card &CELL ignored
Warning: card &FCP ignored
Warning: card &RISM ignored

     Current dimensions of program PWSCF are:
     Max number of different atomic species (ntypx) = 10
     Max number of k-points (npk) =  40000
     Max angular momentum in pseudopotentials (lmaxx) =  4
     Message from routine setup:
     using ibrav=0 with symmetry is DISCOURAGED, use correct ibrav instead

     Subspace diagonalization in iterative solution of the eigenvalue problem:
     a serial algorithm will be used


     G-vector sticks info
     --------------------
     sticks:   dense  smooth     PW     G-vecs:    dense   smooth      PW
     Sum         649     313    109                10777     3719     725

     Using Slab Decomposition



     bravais-lattice index     =            0
     lattice parameter (alat)  =       5.3792  a.u.
     unit-cell volume          =     110.0597 (a.u.)^3
     number of atoms/cell      =            1
     number of atomic types    =            1
     number of electrons       =        11.00
     number of Kohn-Sham states=           10
     kinetic-energy cutoff     =      40.0000  Ry
     charge density cutoff     =     320.0000  Ry
     scf convergence threshold =      1.0E-06
     mixing beta               =       0.7000
     number of iterations used =            8  plain     mixing
     Exchange-correlation= LDA
                           (   1   1   0   0   0   0   0)

     celldm(1)=   5.379160  celldm(2)=   0.000000  celldm(3)=   0.000000
     celldm(4)=   0.000000  celldm(5)=   0.000000  celldm(6)=   0.000000

     crystal axes: (cart. coord. in units of alat)
               a(1) = (   0.000000   0.707107   0.707107 )  
               a(2) = (   0.707107   0.000000   0.707107 )  
               a(3) = (   0.707107   0.707107   0.000000 )  

     reciprocal axes: (cart. coord. in units 2 pi/alat)
               b(1) = ( -0.707107  0.707107  0.707107 )  
               b(2) = (  0.707107 -0.707107  0.707107 )  
               b(3) = (  0.707107  0.707107 -0.707107 )  


     PseudoPot. # 1 for Au read from file:
     /home/kenobi/Workspaces/PHYS400/pseudopotentials/Au.pz-rrkjus_aewfc.UPF
     MD5 check sum: a6a73ca633fd0b71782ee3cea1e65e2b
     Pseudo is Ultrasoft, Zval = 11.0
     Generated using "atomic" code by A. Dal Corso  (Quantum ESPRESSO distribution)
     Using radial grid of 1279 points,  3 beta functions with: 
                l(1) =   1
                l(2) =   2
                l(3) =   2
     Q(r) pseudized with 0 coefficients 


     atomic species   valence    mass     pseudopotential
     Au               11.00   196.96657     Au( 1.00)

     48 Sym. Ops., with inversion, found



   Cartesian axes

     site n.     atom                  positions (alat units)
         1        Au     tau(   1) = (   0.0000000   0.0000000   0.0000000  )

     number of k points=    16  Marzari-Vanderbilt smearing, width (Ry)=  0.0200
                       cart. coord. in units 2pi/alat
        k(    1) = (   0.0000000   0.0000000   0.0000000), wk =   0.0092593
        k(    2) = (   0.1178511   0.1178511  -0.1178511), wk =   0.0740741
        k(    3) = (   0.2357023   0.2357023  -0.2357023), wk =   0.0740741
        k(    4) = (  -0.3535534  -0.3535534   0.3535534), wk =   0.0370370
        k(    5) = (   0.2357023   0.0000000   0.0000000), wk =   0.0555556
        k(    6) = (   0.3535534   0.1178511  -0.1178511), wk =   0.2222222
        k(    7) = (  -0.2357023  -0.4714045   0.4714045), wk =   0.2222222
        k(    8) = (  -0.1178511  -0.3535534   0.3535534), wk =   0.2222222
        k(    9) = (   0.0000000  -0.2357023   0.2357023), wk =   0.1111111
        k(   10) = (   0.4714045   0.0000000   0.0000000), wk =   0.0555556
        k(   11) = (  -0.1178511  -0.5892557   0.5892557), wk =   0.2222222
        k(   12) = (  -0.0000000  -0.4714045   0.4714045), wk =   0.1111111
        k(   13) = (  -0.7071068   0.0000000   0.0000000), wk =   0.0277778
        k(   14) = (  -0.2357023  -0.4714045   0.7071068), wk =   0.2222222
        k(   15) = (  -0.1178511  -0.3535534   0.5892557), wk =   0.2222222
        k(   16) = (  -0.7071068   0.2357023   0.0000000), wk =   0.1111111

     Dense  grid:    10777 G-vectors     FFT dimensions: (  32,  32,  32)

     Smooth grid:     3719 G-vectors     FFT dimensions: (  24,  24,  24)

     Estimated max dynamical RAM per process >      28.30 MB

     Initial potential from superposition of free atoms

     starting charge      10.9999, renormalised to      11.0000
     Starting wfcs are    9 randomized atomic wfcs +    1 random wfcs

     total cpu time spent up to now is        0.4 secs

     Self-consistent Calculation

     iteration #  1     ecut=    40.00 Ry     beta= 0.70
     Davidson diagonalization with overlap
     ethr =  1.00E-02,  avg # of iterations =  5.4

     Threshold (ethr) on eigenvalues was too large:
     Diagonalizing with lowered threshold

     Davidson diagonalization with overlap
     ethr =  6.50E-04,  avg # of iterations =  1.8

     total cpu time spent up to now is        0.7 secs

     total energy              =     -66.81444158 Ry
     estimated scf accuracy    <       0.07312979 Ry

     iteration #  2     ecut=    40.00 Ry     beta= 0.70
     Davidson diagonalization with overlap
     ethr =  6.65E-04,  avg # of iterations =  2.7

     total cpu time spent up to now is        0.8 secs

     total energy              =     -66.83621400 Ry
     estimated scf accuracy    <       0.02048552 Ry

     iteration #  3     ecut=    40.00 Ry     beta= 0.70
     Davidson diagonalization with overlap
     ethr =  1.86E-04,  avg # of iterations =  1.8

     total cpu time spent up to now is        1.0 secs

     total energy              =     -66.84016032 Ry
     estimated scf accuracy    <       0.00002205 Ry

     iteration #  4     ecut=    40.00 Ry     beta= 0.70
     Davidson diagonalization with overlap
     ethr =  2.00E-07,  avg # of iterations =  3.4

     total cpu time spent up to now is        1.2 secs

     total energy              =     -66.84017446 Ry
     estimated scf accuracy    <       0.00000224 Ry

     iteration #  5     ecut=    40.00 Ry     beta= 0.70
     Davidson diagonalization with overlap
     ethr =  2.03E-08,  avg # of iterations =  1.1

     total cpu time spent up to now is        1.3 secs

     End of self-consistent calculation

          k = 0.0000 0.0000 0.0000 (   459 PWs)   bands (ev):

     6.1898  11.6796  11.6796  11.6796  13.3205  13.3205  33.1771  36.8907
    36.8907  36.8907

          k = 0.1179 0.1179-0.1179 (   483 PWs)   bands (ev):

     7.1449  11.4435  11.9469  11.9469  13.2676  13.2676  31.6505  34.1443
    37.4474  37.4474

          k = 0.2357 0.2357-0.2357 (   468 PWs)   bands (ev):

     8.6935  11.8421  11.8421  12.4063  13.9923  13.9923  24.7719  33.1614
    36.4163  36.4163

          k =-0.3536-0.3536 0.3536 (   464 PWs)   bands (ev):

     8.8537  11.6347  11.6347  14.6273  14.6273  15.4448  19.8468  32.2374
    34.9826  34.9826

          k = 0.2357 0.0000 0.0000 (   479 PWs)   bands (ev):

     7.4759  11.0469  12.3004  12.3004  12.6771  13.6166  34.2754  34.3643
    34.5483  34.5483

          k = 0.3536 0.1179-0.1179 (   471 PWs)   bands (ev):

     9.0555  10.8234  11.8175  12.5549  13.9459  14.2029  27.4996  32.7688
    33.5868  34.9548

          k =-0.2357-0.4714 0.4714 (   468 PWs)   bands (ev):

     9.5029  11.2380  12.2616  12.3590  14.6743  17.2863  20.9137  30.9659
    32.6786  33.7584

          k =-0.1179-0.3536 0.3536 (   470 PWs)   bands (ev):

     9.5956  11.3807  12.1012  12.2377  13.8232  16.3133  23.1375  29.8005
    33.9675  35.4564

          k = 0.0000-0.2357 0.2357 (   475 PWs)   bands (ev):

     8.5279  11.0653  11.9656  12.4962  12.7133  14.3092  29.2501  31.1644
    36.3371  37.3532

          k = 0.4714 0.0000 0.0000 (   472 PWs)   bands (ev):

     9.3394   9.9466  13.4117  13.8810  13.8810  14.2435  29.1424  29.6440
    29.6440  33.7639

          k =-0.1179-0.5893 0.5893 (   466 PWs)   bands (ev):

     9.5653  10.0309  13.0090  13.7528  14.7884  17.7889  23.4281  26.6872
    28.9833  35.0149

          k =-0.0000-0.4714 0.4714 (   466 PWs)   bands (ev):

    10.0920  10.9439  11.8820  13.1999  14.1566  19.1671  23.2653  24.0231
    31.5480  34.6551

          k =-0.7071 0.0000 0.0000 (   468 PWs)   bands (ev):

     9.1122   9.4586  14.5765  14.9806  14.9806  17.5401  22.5941  27.1795
    27.1795  34.1933

          k =-0.2357-0.4714 0.7071 (   467 PWs)   bands (ev):

    10.2639  10.5406  11.3410  13.4809  13.8709  16.5466  25.5075  27.2664
    30.6872  38.0194

          k =-0.1179-0.3536 0.5893 (   474 PWs)   bands (ev):

    10.5163  10.6171  11.5904  13.0467  14.5349  20.1061  20.8631  26.7711
    28.7860  37.4419

          k =-0.7071 0.2357 0.0000 (   470 PWs)   bands (ev):

     9.9049  10.2265  12.4430  13.6177  14.9822  20.9184  21.7859  25.1322
    26.4975  38.8956

     the Fermi energy is    16.6113 ev

!    total energy              =     -66.84017461 Ry
     estimated scf accuracy    <       0.00000006 Ry
     smearing contrib. (-TS)   =      -0.00007624 Ry
     internal energy E=F+TS    =     -66.84009837 Ry

     The total energy is F=E-TS. E is the sum of the following terms:
     one-electron contribution =       9.57756681 Ry
     hartree contribution      =       6.98356706 Ry
     xc contribution           =     -10.47527151 Ry
     ewald contribution        =     -72.92596073 Ry

     convergence has been achieved in   5 iterations

     Forces acting on atoms (cartesian axes, Ry/au):

     atom    1 type  1   force =     0.00000000    0.00000000    0.00000000

     Total force =     0.000000     Total SCF correction =     0.000000


     Computing stress (Cartesian axis) and pressure

          total   stress  (Ry/bohr**3)                   (kbar)     P=       61.93
   0.00042100   0.00000000   0.00000000           61.93        0.00        0.00
   0.00000000   0.00042100  -0.00000000            0.00       61.93       -0.00
   0.00000000  -0.00000000   0.00042100            0.00       -0.00       61.93


     Writing all to output data dir ./pwscf.save/ :
     XML data file, charge density, pseudopotentials, collected wavefunctions

     init_run     :      0.28s CPU      0.28s WALL (       1 calls)
     electrons    :      0.92s CPU      0.94s WALL (       1 calls)
     forces       :      0.03s CPU      0.03s WALL (       1 calls)
     stress       :      0.22s CPU      0.22s WALL (       1 calls)

     Called by init_run:
     wfcinit      :      0.04s CPU      0.04s WALL (       1 calls)
     potinit      :      0.02s CPU      0.02s WALL (       1 calls)
     hinit0       :      0.19s CPU      0.19s WALL (       1 calls)

     Called by electrons:
     c_bands      :      0.61s CPU      0.63s WALL (       6 calls)
     sum_band     :      0.20s CPU      0.21s WALL (       6 calls)
     v_of_rho     :      0.01s CPU      0.01s WALL (       6 calls)
     newd         :      0.11s CPU      0.11s WALL (       6 calls)
     mix_rho      :      0.00s CPU      0.00s WALL (       6 calls)

     Called by c_bands:
     init_us_2    :      0.02s CPU      0.02s WALL (     240 calls)
     cegterg      :      0.59s CPU      0.61s WALL (      96 calls)

     Called by *egterg:
     cdiaghg      :      0.03s CPU      0.03s WALL (     338 calls)
     h_psi        :      0.48s CPU      0.49s WALL (     370 calls)
     s_psi        :      0.02s CPU      0.02s WALL (     370 calls)
     g_psi        :      0.00s CPU      0.00s WALL (     258 calls)

     Called by h_psi:
     h_psi:calbec :      0.02s CPU      0.02s WALL (     370 calls)
     vloc_psi     :      0.44s CPU      0.45s WALL (     370 calls)
                                        0.00s GPU  (     370 calls)
     add_vuspsi   :      0.02s CPU      0.02s WALL (     370 calls)

     General routines
     calbec       :      0.06s CPU      0.06s WALL (     738 calls)
     fft          :      0.01s CPU      0.01s WALL (      40 calls)
     ffts         :      0.00s CPU      0.00s WALL (      12 calls)
     fftw         :      0.47s CPU      0.48s WALL (    5998 calls)
     interpolate  :      0.00s CPU      0.00s WALL (       6 calls)

     Parallel routines

     PWSCF        :      1.51s CPU      1.54s WALL


   This run was terminated on:  15:52: 6  15Mar2026            

=------------------------------------------------------------------------------=
   JOB DONE.
=------------------------------------------------------------------------------=
