
     Program PWSCF v.7.5 starts on 15Mar2026 at 15:53:41 

     This program is part of the open-source Quantum ESPRESSO suite
     for quantum simulation of materials; please cite
         "P. Giannozzi et al., J. Phys.:Condens. Matter 21 395502 (2009);
         "P. Giannozzi et al., J. Phys.:Condens. Matter 29 465901 (2017);
         "P. Giannozzi et al., J. Chem. Phys. 152 154105 (2020);
          URL http://www.quantum-espresso.org", 
     in publications or presentations arising from this work. More details at
     http://www.quantum-espresso.org/quote

     Parallel version (MPI), running on     1 processors

     MPI processes distributed on     1 nodes
     3450 MiB available memory on the printing compute node when the environment starts

     Reading input from espresso.pwi
Warning: card &CELL ignored
Warning: card &FCP ignored
Warning: card &RISM ignored

     Current dimensions of program PWSCF are:
     Max number of different atomic species (ntypx) = 10
     Max number of k-points (npk) =  40000
     Max angular momentum in pseudopotentials (lmaxx) =  4
     file Cu.pbe-dn-kjpaw_psl.1.0.0.UPF: wavefunction(s)  4S 3D renormalized
     Message from routine setup:
     using ibrav=0 with symmetry is DISCOURAGED, use correct ibrav instead

     Subspace diagonalization in iterative solution of the eigenvalue problem:
     a serial algorithm will be used


     G-vector sticks info
     --------------------
     sticks:   dense  smooth     PW     G-vecs:    dense   smooth      PW
     Sum         547     265     91                 8363     2891     609

     Using Slab Decomposition



     bravais-lattice index     =            0
     lattice parameter (alat)  =       4.9525  a.u.
     unit-cell volume          =      85.8908 (a.u.)^3
     number of atoms/cell      =            1
     number of atomic types    =            1
     number of electrons       =        11.00
     number of Kohn-Sham states=           10
     kinetic-energy cutoff     =      40.0000  Ry
     charge density cutoff     =     320.0000  Ry
     scf convergence threshold =      1.0E-06
     mixing beta               =       0.7000
     number of iterations used =            8  plain     mixing
     Exchange-correlation= SLA  PW   PBX  PBC
                           (   1   4   3   4   0   0   0)

     celldm(1)=   4.952455  celldm(2)=   0.000000  celldm(3)=   0.000000
     celldm(4)=   0.000000  celldm(5)=   0.000000  celldm(6)=   0.000000

     crystal axes: (cart. coord. in units of alat)
               a(1) = (   0.000000   0.707107   0.707107 )  
               a(2) = (   0.707107   0.000000   0.707107 )  
               a(3) = (   0.707107   0.707107   0.000000 )  

     reciprocal axes: (cart. coord. in units 2 pi/alat)
               b(1) = ( -0.707107  0.707107  0.707107 )  
               b(2) = (  0.707107 -0.707107  0.707107 )  
               b(3) = (  0.707107  0.707107 -0.707107 )  


     PseudoPot. # 1 for Cu read from file:
     /home/kenobi/Workspaces/PHYS400/pseudopotentials/Cu.pbe-dn-kjpaw_psl.1.0.0.UPF
     MD5 check sum: cfffd1f38ee05704b3e17f46f1730a6f
     Pseudo is Projector augmented-wave + core cor, Zval = 11.0
     Generated using &quot;atomic&quot; code by A. Dal Corso  v.6.3
     Shape of augmentation charge: PSQ
     Using radial grid of 1199 points,  6 beta functions with: 
                l(1) =   0
                l(2) =   0
                l(3) =   1
                l(4) =   1
                l(5) =   2
                l(6) =   2
     Q(r) pseudized with 0 coefficients 


     atomic species   valence    mass     pseudopotential
     Cu               11.00    63.54600     Cu( 1.00)

     48 Sym. Ops., with inversion, found



   Cartesian axes

     site n.     atom                  positions (alat units)
         1        Cu     tau(   1) = (   0.0000000   0.0000000   0.0000000  )

     number of k points=    16  Marzari-Vanderbilt smearing, width (Ry)=  0.0200
                       cart. coord. in units 2pi/alat
        k(    1) = (   0.0000000   0.0000000   0.0000000), wk =   0.0092593
        k(    2) = (   0.1178511   0.1178511  -0.1178511), wk =   0.0740741
        k(    3) = (   0.2357023   0.2357023  -0.2357023), wk =   0.0740741
        k(    4) = (  -0.3535534  -0.3535534   0.3535534), wk =   0.0370370
        k(    5) = (   0.2357023   0.0000000   0.0000000), wk =   0.0555556
        k(    6) = (   0.3535534   0.1178511  -0.1178511), wk =   0.2222222
        k(    7) = (  -0.2357023  -0.4714045   0.4714045), wk =   0.2222222
        k(    8) = (  -0.1178511  -0.3535534   0.3535534), wk =   0.2222222
        k(    9) = (   0.0000000  -0.2357023   0.2357023), wk =   0.1111111
        k(   10) = (   0.4714045   0.0000000   0.0000000), wk =   0.0555556
        k(   11) = (  -0.1178511  -0.5892557   0.5892557), wk =   0.2222222
        k(   12) = (  -0.0000000  -0.4714045   0.4714045), wk =   0.1111111
        k(   13) = (  -0.7071068   0.0000000   0.0000000), wk =   0.0277778
        k(   14) = (  -0.2357023  -0.4714045   0.7071068), wk =   0.2222222
        k(   15) = (  -0.1178511  -0.3535534   0.5892557), wk =   0.2222222
        k(   16) = (  -0.7071068   0.2357023   0.0000000), wk =   0.1111111

     Dense  grid:     8363 G-vectors     FFT dimensions: (  30,  30,  30)

     Smooth grid:     2891 G-vectors     FFT dimensions: (  20,  20,  20)

     Estimated max dynamical RAM per process >      33.43 MB

     Initial potential from superposition of free atoms

     starting charge      10.9998, renormalised to      11.0000
     Starting wfcs are    9 randomized atomic wfcs +    1 random wfcs
     Checking if some PAW data can be deallocated... 

     total cpu time spent up to now is        0.7 secs

     Self-consistent Calculation

     iteration #  1     ecut=    40.00 Ry     beta= 0.70
     Davidson diagonalization with overlap
     ethr =  1.00E-02,  avg # of iterations =  4.1

     Threshold (ethr) on eigenvalues was too large:
     Diagonalizing with lowered threshold

     Davidson diagonalization with overlap
     ethr =  4.47E-04,  avg # of iterations =  1.4

     total cpu time spent up to now is        1.1 secs

     total energy              =    -213.05789497 Ry
     estimated scf accuracy    <       0.04931005 Ry

     iteration #  2     ecut=    40.00 Ry     beta= 0.70
     Davidson diagonalization with overlap
     ethr =  4.48E-04,  avg # of iterations =  2.4

     total cpu time spent up to now is        1.5 secs

     total energy              =    -213.05629425 Ry
     estimated scf accuracy    <       0.19632916 Ry

     iteration #  3     ecut=    40.00 Ry     beta= 0.70
     Davidson diagonalization with overlap
     ethr =  4.48E-04,  avg # of iterations =  2.0

     total cpu time spent up to now is        1.8 secs

     total energy              =    -213.08722091 Ry
     estimated scf accuracy    <       0.00006251 Ry

     iteration #  4     ecut=    40.00 Ry     beta= 0.70
     Davidson diagonalization with overlap
     ethr =  5.68E-07,  avg # of iterations =  4.4

     total cpu time spent up to now is        2.1 secs

     total energy              =    -213.08724708 Ry
     estimated scf accuracy    <       0.00002622 Ry

     iteration #  5     ecut=    40.00 Ry     beta= 0.70
     Davidson diagonalization with overlap
     ethr =  2.38E-07,  avg # of iterations =  2.0

     total cpu time spent up to now is        2.4 secs

     total energy              =    -213.08725345 Ry
     estimated scf accuracy    <       0.00000455 Ry

     iteration #  6     ecut=    40.00 Ry     beta= 0.70
     Davidson diagonalization with overlap
     ethr =  4.14E-08,  avg # of iterations =  1.1

     total cpu time spent up to now is        2.7 secs

     End of self-consistent calculation

          k = 0.0000 0.0000 0.0000 (   339 PWs)   bands (ev):

     2.5686   8.6393   8.6393   8.6393   9.3793   9.3793  33.6650  35.5074
    35.5074  35.5074

          k = 0.1179 0.1179-0.1179 (   362 PWs)   bands (ev):

     3.5071   8.4835   8.7643   8.7643   9.3568   9.3568  27.3093  33.8266
    33.8266  33.8787

          k = 0.2357 0.2357-0.2357 (   359 PWs)   bands (ev):

     5.8062   8.6379   8.7129   8.7129   9.6492   9.6492  19.5381  32.6142
    32.6142  32.7705

          k =-0.3536-0.3536 0.3536 (   368 PWs)   bands (ev):

     6.7372   8.6108   8.6108   9.8906   9.8906  10.5858  14.8059  32.1214
    32.3319  32.3319

          k = 0.2357 0.0000 0.0000 (   355 PWs)   bands (ev):

     3.8139   8.3144   8.9189   8.9189   9.1046   9.5010  30.2239  30.2239
    30.9606  32.5048

          k = 0.3536 0.1179-0.1179 (   366 PWs)   bands (ev):

     5.6994   8.0859   8.6869   9.0348   9.6766   9.7309  22.6149  28.3986
    29.5786  31.0858

          k =-0.2357-0.4714 0.4714 (   368 PWs)   bands (ev):

     7.1324   8.2856   8.7153   8.9025   9.9082  11.8758  16.0721  26.4456
    28.6558  30.9284

          k =-0.1179-0.3536 0.3536 (   365 PWs)   bands (ev):

     6.9490   8.4367   8.4968   8.8951   9.5824  11.0617  17.9985  24.9570
    31.1212  32.2591

          k = 0.0000-0.2357 0.2357 (   369 PWs)   bands (ev):

     4.9567   8.2615   8.7399   9.0207   9.1152   9.8059  24.9917  25.5961
    35.2559  35.4251

          k = 0.4714 0.0000 0.0000 (   355 PWs)   bands (ev):

     6.5153   7.6875   9.4792   9.5970   9.5970   9.7485  24.4107  25.6854
    25.6854  28.8884

          k =-0.1179-0.5893 0.5893 (   368 PWs)   bands (ev):

     7.2192   7.6146   9.1381   9.5510   9.9500  12.5606  19.9294  20.7082
    25.2355  29.5727

          k =-0.0000-0.4714 0.4714 (   375 PWs)   bands (ev):

     7.7079   7.8749   8.5255   9.3184   9.7133  14.4677  17.0623  19.3508
    27.2483  30.4113

          k =-0.7071 0.0000 0.0000 (   360 PWs)   bands (ev):

     6.9624   7.3853   9.8741  10.0192  10.0192  12.9310  18.0084  23.9223
    23.9223  28.2656

          k =-0.2357-0.4714 0.7071 (   367 PWs)   bands (ev):

     7.2247   7.9279   8.3887   9.4244   9.5959  11.3152  21.1881  22.0838
    25.4286  35.1748

          k =-0.1179-0.3536 0.5893 (   370 PWs)   bands (ev):

     7.8153   7.8632   8.3650   9.2537   9.8624  14.8281  15.8573  22.6606
    22.6809  35.4020

          k =-0.7071 0.2357 0.0000 (   374 PWs)   bands (ev):

     7.4345   7.7324   8.8226   9.5149  10.0197  15.2799  18.5730  19.6994
    20.8579  34.1695

     the Fermi energy is    11.3754 ev

!    total energy              =    -213.08725419 Ry
     total all-electron energy =     -3309.967020 Ry
     estimated scf accuracy    <          1.3E-09 Ry
     smearing contrib. (-TS)   =      -0.00003401 Ry
     internal energy E=F+TS    =    -213.08722018 Ry

     The total energy is F=E-TS. E is the sum of the following terms:
     one-electron contribution =     -31.20899335 Ry
     hartree contribution      =      31.77391901 Ry
     xc contribution           =     -44.60003843 Ry
     ewald contribution        =     -79.20928900 Ry
     one-center paw contrib.   =     -89.84281841 Ry

     convergence has been achieved in   6 iterations

     Forces acting on atoms (cartesian axes, Ry/au):

     atom    1 type  1   force =     0.00000000    0.00000000    0.00000000

     Total force =     0.000000     Total SCF correction =     0.000000


     Computing stress (Cartesian axis) and pressure

          total   stress  (Ry/bohr**3)                   (kbar)     P=      -74.17
  -0.00050421   0.00000000   0.00000000          -74.17        0.00        0.00
   0.00000000  -0.00050421   0.00000000            0.00      -74.17        0.00
   0.00000000   0.00000000  -0.00050421            0.00        0.00      -74.17


     Writing all to output data dir ./pwscf.save/ :
     XML data file, charge density, pseudopotentials, collected wavefunctions

     init_run     :      0.51s CPU      0.55s WALL (       1 calls)
     electrons    :      2.02s CPU      2.05s WALL (       1 calls)
     forces       :      0.05s CPU      0.05s WALL (       1 calls)
     stress       :      0.26s CPU      0.26s WALL (       1 calls)

     Called by init_run:
     wfcinit      :      0.03s CPU      0.03s WALL (       1 calls)
     potinit      :      0.20s CPU      0.23s WALL (       1 calls)
     hinit0       :      0.26s CPU      0.26s WALL (       1 calls)

     Called by electrons:
     c_bands      :      0.57s CPU      0.58s WALL (       7 calls)
     sum_band     :      0.23s CPU      0.24s WALL (       7 calls)
     v_of_rho     :      0.06s CPU      0.06s WALL (       7 calls)
     newd         :      0.14s CPU      0.15s WALL (       7 calls)
     PAW_pot      :      1.21s CPU      1.24s WALL (       7 calls)
     mix_rho      :      0.00s CPU      0.00s WALL (       7 calls)

     Called by c_bands:
     init_us_2    :      0.02s CPU      0.02s WALL (     272 calls)
     cegterg      :      0.54s CPU      0.56s WALL (     112 calls)

     Called by *egterg:
     cdiaghg      :      0.03s CPU      0.03s WALL (     373 calls)
     h_psi        :      0.42s CPU      0.43s WALL (     405 calls)
     s_psi        :      0.02s CPU      0.02s WALL (     405 calls)
     g_psi        :      0.00s CPU      0.00s WALL (     277 calls)

     Called by h_psi:
     h_psi:calbec :      0.03s CPU      0.03s WALL (     405 calls)
     vloc_psi     :      0.37s CPU      0.38s WALL (     405 calls)
                                        0.00s GPU  (     405 calls)
     add_vuspsi   :      0.02s CPU      0.02s WALL (     405 calls)

     General routines
     calbec       :      0.07s CPU      0.07s WALL (     789 calls)
     fft          :      0.04s CPU      0.04s WALL (     115 calls)
     ffts         :      0.00s CPU      0.00s WALL (      14 calls)
     fftw         :      0.40s CPU      0.41s WALL (    6984 calls)
     interpolate  :      0.00s CPU      0.00s WALL (       7 calls)

     Parallel routines

     PWSCF        :      2.97s CPU      3.04s WALL


   This run was terminated on:  15:53:44  15Mar2026            

=------------------------------------------------------------------------------=
   JOB DONE.
=------------------------------------------------------------------------------=
