
     Program PWSCF v.7.5 starts on 15Mar2026 at 15:54: 7 

     This program is part of the open-source Quantum ESPRESSO suite
     for quantum simulation of materials; please cite
         "P. Giannozzi et al., J. Phys.:Condens. Matter 21 395502 (2009);
         "P. Giannozzi et al., J. Phys.:Condens. Matter 29 465901 (2017);
         "P. Giannozzi et al., J. Chem. Phys. 152 154105 (2020);
          URL http://www.quantum-espresso.org", 
     in publications or presentations arising from this work. More details at
     http://www.quantum-espresso.org/quote

     Parallel version (MPI), running on     1 processors

     MPI processes distributed on     1 nodes
     3413 MiB available memory on the printing compute node when the environment starts

     Reading input from espresso.pwi
Warning: card &CELL ignored
Warning: card &FCP ignored
Warning: card &RISM ignored

     Current dimensions of program PWSCF are:
     Max number of different atomic species (ntypx) = 10
     Max number of k-points (npk) =  40000
     Max angular momentum in pseudopotentials (lmaxx) =  4
     file Fe.pbe-spn-kjpaw_psl.1.0.0.UPF: wavefunction(s)  3P 3D renormalized
     Message from routine setup:
     using ibrav=0 with symmetry is DISCOURAGED, use correct ibrav instead

     Subspace diagonalization in iterative solution of the eigenvalue problem:
     a serial algorithm will be used


     G-vector sticks info
     --------------------
     sticks:   dense  smooth     PW     G-vecs:    dense   smooth      PW
     Sum         523     261    117                 7419     2659     767

     Using Slab Decomposition



     bravais-lattice index     =            0
     lattice parameter (alat)  =       4.6343  a.u.
     unit-cell volume          =      76.6167 (a.u.)^3
     number of atoms/cell      =            1
     number of atomic types    =            1
     number of electrons       =        16.00
     number of Kohn-Sham states=           12
     kinetic-energy cutoff     =      40.0000  Ry
     charge density cutoff     =     320.0000  Ry
     scf convergence threshold =      1.0E-06
     mixing beta               =       0.7000
     number of iterations used =            8  plain     mixing
     Exchange-correlation= SLA  PW   PBX  PBC
                           (   1   4   3   4   0   0   0)

     celldm(1)=   4.634276  celldm(2)=   0.000000  celldm(3)=   0.000000
     celldm(4)=   0.000000  celldm(5)=   0.000000  celldm(6)=   0.000000

     crystal axes: (cart. coord. in units of alat)
               a(1) = (  -0.577350   0.577350   0.577350 )  
               a(2) = (   0.577350  -0.577350   0.577350 )  
               a(3) = (   0.577350   0.577350  -0.577350 )  

     reciprocal axes: (cart. coord. in units 2 pi/alat)
               b(1) = (  0.000000  0.866025  0.866025 )  
               b(2) = (  0.866025  0.000000  0.866025 )  
               b(3) = (  0.866025  0.866025  0.000000 )  


     PseudoPot. # 1 for Fe read from file:
     /home/kenobi/Workspaces/PHYS400/pseudopotentials/Fe.pbe-spn-kjpaw_psl.1.0.0.UPF
     MD5 check sum: fc81f059e5c5069939230b1155715ae8
     Pseudo is Projector augmented-wave + core cor, Zval = 16.0
     Generated using &quot;atomic&quot; code by A. Dal Corso  v.6.3
     Shape of augmentation charge: PSQ
     Using radial grid of 1191 points,  6 beta functions with: 
                l(1) =   0
                l(2) =   0
                l(3) =   1
                l(4) =   1
                l(5) =   2
                l(6) =   2
     Q(r) pseudized with 0 coefficients 


     atomic species   valence    mass     pseudopotential
     Fe               16.00    55.84500     Fe( 1.00)

     Starting magnetic structure 
     atomic species   magnetization
     Fe              0.144

     48 Sym. Ops., with inversion, found



   Cartesian axes

     site n.     atom                  positions (alat units)
         1        Fe     tau(   1) = (   0.0000000   0.0000000   0.0000000  )

     number of k points=    16  Marzari-Vanderbilt smearing, width (Ry)=  0.0200
                       cart. coord. in units 2pi/alat
        k(    1) = (   0.0000000   0.0000000   0.0000000), wk =   0.0046296
        k(    2) = (   0.1443376   0.1443376   0.0000000), wk =   0.0555556
        k(    3) = (   0.2886751   0.2886751   0.0000000), wk =   0.0555556
        k(    4) = (  -0.4330127  -0.4330127   0.0000000), wk =   0.0277778
        k(    5) = (   0.2886751   0.1443376   0.1443376), wk =   0.1111111
        k(    6) = (   0.4330127   0.2886751   0.1443376), wk =   0.2222222
        k(    7) = (   0.5773503   0.2886751   0.2886751), wk =   0.0370370
        k(    8) = (   0.2886751   0.2886751   0.2886751), wk =   0.0370370
        k(    9) = (   0.4330127   0.4330127   0.2886751), wk =   0.0555556
        k(   10) = (   0.0000000   0.0000000   0.2886751), wk =   0.0277778
        k(   11) = (  -0.0000000  -0.1443376   0.4330127), wk =   0.1111111
        k(   12) = (  -0.8660254  -0.2886751  -0.2886751), wk =   0.0555556
        k(   13) = (  -0.7216878  -0.1443376  -0.2886751), wk =   0.1111111
        k(   14) = (  -0.0000000  -0.0000000   0.5773503), wk =   0.0277778
        k(   15) = (  -0.8660254  -0.1443376  -0.1443376), wk =   0.0555556
        k(   16) = (  -0.8660254  -0.8660254  -0.8660254), wk =   0.0046296

     Dense  grid:     7419 G-vectors     FFT dimensions: (  27,  27,  27)

     Smooth grid:     2659 G-vectors     FFT dimensions: (  20,  20,  20)

     Estimated max dynamical RAM per process >      33.84 MB

     Check: negative core charge=   -0.000009
     Generating pointlists ...
     new r_m :   0.4125 (alat units)  1.9116 (a.u.) for type    1

     Initial potential from superposition of free atoms

     starting charge      15.9996, renormalised to      16.0000
     Starting wfcs are   10 randomized atomic wfcs +    2 random wfcs
     Checking if some PAW data can be deallocated... 

     total cpu time spent up to now is        0.9 secs

     Self-consistent Calculation

     iteration #  1     ecut=    40.00 Ry     beta= 0.70
     Davidson diagonalization with overlap
     ethr =  1.00E-02,  avg # of iterations =  4.2

     Threshold (ethr) on eigenvalues was too large:
     Diagonalizing with lowered threshold

     Davidson diagonalization with overlap
     ethr =  3.76E-04,  avg # of iterations =  1.2

     negative rho (up, down):  0.000E+00 1.003E-04

     total cpu time spent up to now is        1.9 secs

     total energy              =    -329.02425849 Ry
     estimated scf accuracy    <       0.06270021 Ry

     total magnetization       =     2.19 Bohr mag/cell
     absolute magnetization    =     2.19 Bohr mag/cell

     iteration #  2     ecut=    40.00 Ry     beta= 0.70
     Davidson diagonalization with overlap
     ethr =  3.92E-04,  avg # of iterations =  2.6
     Minimization algorithm failed to find Fermi energy: reverting to bisection
     Possible cause: smearing is larger than the electronic band-gap.

     negative rho (up, down):  0.000E+00 1.017E-04

     total cpu time spent up to now is        2.7 secs

     total energy              =    -329.02762533 Ry
     estimated scf accuracy    <       0.15681965 Ry

     total magnetization       =     2.25 Bohr mag/cell
     absolute magnetization    =     2.30 Bohr mag/cell

     iteration #  3     ecut=    40.00 Ry     beta= 0.70
     Davidson diagonalization with overlap
     ethr =  3.92E-04,  avg # of iterations =  2.2

     negative rho (up, down):  0.000E+00 3.374E-04

     total cpu time spent up to now is        3.4 secs

     total energy              =    -329.05777063 Ry
     estimated scf accuracy    <       0.00095284 Ry

     total magnetization       =     2.19 Bohr mag/cell
     absolute magnetization    =     2.26 Bohr mag/cell

     iteration #  4     ecut=    40.00 Ry     beta= 0.70
     Davidson diagonalization with overlap
     ethr =  5.96E-06,  avg # of iterations =  3.1

     negative rho (up, down):  0.000E+00 3.598E-04

     total cpu time spent up to now is        4.2 secs

     total energy              =    -329.05826182 Ry
     estimated scf accuracy    <       0.00012986 Ry

     total magnetization       =     2.19 Bohr mag/cell
     absolute magnetization    =     2.30 Bohr mag/cell

     iteration #  5     ecut=    40.00 Ry     beta= 0.70
     Davidson diagonalization with overlap
     ethr =  8.12E-07,  avg # of iterations =  2.0

     negative rho (up, down):  0.000E+00 3.596E-04

     total cpu time spent up to now is        4.9 secs

     total energy              =    -329.05832010 Ry
     estimated scf accuracy    <       0.00002153 Ry

     total magnetization       =     2.19 Bohr mag/cell
     absolute magnetization    =     2.31 Bohr mag/cell

     iteration #  6     ecut=    40.00 Ry     beta= 0.70
     Davidson diagonalization with overlap
     ethr =  1.35E-07,  avg # of iterations =  1.6

     negative rho (up, down):  0.000E+00 3.606E-04

     Magnetic moment per site  (integrated on atomic sphere of radius R)
     atom   1 (R=0.413)  charge= 14.3871  magn=  2.2404

     total cpu time spent up to now is        5.6 secs

     End of self-consistent calculation

 ------ SPIN UP ------------


          k = 0.0000 0.0000 0.0000 (   321 PWs)   bands (ev):

   -70.0798 -35.7297 -35.7297 -35.7297   9.8247  16.1339  16.1339  16.1339
    17.4460  17.4460  42.8287  42.8287

          k = 0.1443 0.1443 0.0000 (   333 PWs)   bands (ev):

   -70.0625 -35.8782 -35.7665 -35.7594  10.9208  15.8041  15.9984  16.6843
    17.2274  17.2902  37.8204  41.0410

          k = 0.2887 0.2887 0.0000 (   330 PWs)   bands (ev):

   -70.0227 -36.0308 -35.8409 -35.7701  13.0811  15.2785  16.3916  17.2592
    17.4891  18.1227  30.3305  37.7321

          k =-0.4330-0.4330 0.0000 (   328 PWs)   bands (ev):

   -70.0030 -36.1340 -35.8786 -35.7575  13.4342  15.0361  17.3473  17.6318
    18.7224  18.8882  25.7388  36.3929

          k = 0.2887 0.1443 0.1443 (   327 PWs)   bands (ev):

   -70.0319 -35.9515 -35.8287 -35.7768  12.7475  15.5151  15.6018  17.0677
    17.5623  18.0910  34.0768  35.1327

          k = 0.4330 0.2887 0.1443 (   324 PWs)   bands (ev):

   -70.0020 -36.0650 -35.8807 -35.7880  13.9852  15.1387  16.1664  17.3526
    17.8992  20.5369  27.5692  32.5351

          k = 0.5774 0.2887 0.2887 (   321 PWs)   bands (ev):

   -69.9920 -36.0052 -36.0052 -35.7715  14.7221  15.2923  15.2923  17.7622
    17.7622  25.0920  25.0920  27.8040

          k = 0.2887 0.2887 0.2887 (   336 PWs)   bands (ev):

   -70.0121 -36.0512 -35.8731 -35.8731  14.6152  15.0141  15.0141  17.4022
    17.4022  20.4979  31.3074  31.3074

          k = 0.4330 0.4330 0.2887 (   326 PWs)   bands (ev):

   -69.9995 -36.0115 -35.9338 -35.8702  14.6744  14.8809  15.8789  17.5121
    17.6049  23.8230  26.2662  30.3245

          k = 0.0000 0.0000 0.2887 (   333 PWs)   bands (ev):

   -70.0441 -35.8755 -35.8218 -35.8218  11.9164  16.1662  16.1662  16.3598
    16.7129  17.7668  37.5697  39.0912

          k =-0.0000-0.1443 0.4330 (   327 PWs)   bands (ev):

   -70.0066 -36.0152 -35.8913 -35.8084  13.7545  15.3987  15.9368  16.9630
    17.9972  18.7927  31.0482  35.7754

          k =-0.8660-0.2887-0.2887 (   328 PWs)   bands (ev):

   -69.9886 -36.1084 -35.9264 -35.8112  13.9661  15.6014  15.7266  17.0445
    18.8149  21.5328  25.9033  34.2860

          k =-0.7217-0.1443-0.2887 (   324 PWs)   bands (ev):

   -69.9802 -36.0427 -35.9661 -35.8355  14.6038  14.6613  15.9122  17.5429
    18.3291  22.4231  28.3598  29.3234

          k =-0.0000-0.0000 0.5774 (   322 PWs)   bands (ev):

   -69.9741 -35.9815 -35.9390 -35.9390  14.1716  14.4637  17.3383  17.3383
    18.0237  21.2430  31.8133  31.8133

          k =-0.8660-0.1443-0.1443 (   328 PWs)   bands (ev):

   -69.9589 -36.0511 -35.9909 -35.9363  13.9256  14.0780  17.4857  17.7804
    18.6944  25.3453  26.7961  30.0707

          k =-0.8660-0.8660-0.8660 (   370 PWs)   bands (ev):

   -69.9512 -36.1093 -36.1093 -36.1093  13.3966  13.3966  18.3723  18.3723
    18.3723  28.1044  28.1044  28.1044

 ------ SPIN DOWN ----------


          k = 0.0000 0.0000 0.0000 (   321 PWs)   bands (ev):

   -67.4275 -33.1208 -33.1208 -33.1208   9.9466  18.0469  18.0469  18.0469
    20.2265  20.2265  42.5800  42.5800

          k = 0.1443 0.1443 0.0000 (   333 PWs)   bands (ev):

   -67.4075 -33.2804 -33.1596 -33.1513  11.0595  17.6594  17.8697  18.6549
    19.9043  20.0794  38.1832  41.0530

          k = 0.2887 0.2887 0.0000 (   330 PWs)   bands (ev):

   -67.3643 -33.4563 -33.2413 -33.1611  13.6366  17.0314  17.6785  19.7867
    20.2430  20.3069  31.1933  37.7947

          k =-0.4330-0.4330 0.0000 (   328 PWs)   bands (ev):

   -67.3431 -33.5702 -33.2829 -33.1486  14.6868  16.7436  18.7973  19.9140
    20.4788  21.1206  27.1025  36.4109

          k = 0.2887 0.1443 0.1443 (   327 PWs)   bands (ev):

   -67.3745 -33.3694 -33.2273 -33.1702  13.0103  17.3213  17.3343  19.6177
    20.0146  20.4212  34.6807  35.6617

          k = 0.4330 0.2887 0.1443 (   324 PWs)   bands (ev):

   -67.3422 -33.4959 -33.2877 -33.1821  15.1174  16.8137  17.4352  19.8720
    20.4959  22.1981  28.6075  33.1011

          k = 0.5774 0.2887 0.2887 (   321 PWs)   bands (ev):

   -67.3314 -33.4267 -33.4267 -33.1678  16.2296  16.7594  16.7594  20.2802
    20.2802  26.1881  26.1881  28.6683

          k = 0.2887 0.2887 0.2887 (   336 PWs)   bands (ev):

   -67.3521 -33.4782 -33.2731 -33.2731  15.2039  16.6226  16.6226  20.1738
    20.1738  22.2285  31.9705  31.9706

          k = 0.4330 0.4330 0.2887 (   326 PWs)   bands (ev):

   -67.3390 -33.4367 -33.3444 -33.2712  16.0096  16.4119  17.0569  20.2703
    20.4632  24.9306  27.3468  30.9867

          k = 0.0000 0.0000 0.2887 (   333 PWs)   bands (ev):

   -67.3876 -33.2814 -33.2192 -33.2192  12.0971  18.0229  18.0229  18.6902
    18.8520  20.5652  37.9057  39.6014

          k =-0.0000-0.1443 0.4330 (   327 PWs)   bands (ev):

   -67.3469 -33.4374 -33.2961 -33.2081  14.4364  17.3010  17.7357  19.0907
    20.1008  21.0850  31.8620  36.3790

          k =-0.8660-0.2887-0.2887 (   328 PWs)   bands (ev):

   -67.3274 -33.5408 -33.3345 -33.2100  15.4194  17.1932  17.4908  19.3042
    21.0390  22.7856  27.1504  34.8360

          k =-0.7217-0.1443-0.2887 (   324 PWs)   bands (ev):

   -67.3185 -33.4691 -33.3817 -33.2371  16.0050  16.4882  17.6758  19.6450
    20.5279  23.7731  29.3023  30.0369

          k =-0.0000-0.0000 0.5774 (   322 PWs)   bands (ev):

   -67.3120 -33.4014 -33.3520 -33.3520  15.5153  16.4719  19.2412  19.2412
    20.1417  22.6443  32.3716  32.3716

          k =-0.8660-0.1443-0.1443 (   328 PWs)   bands (ev):

   -67.2951 -33.4751 -33.4075 -33.3502  15.7533  15.8394  19.4425  19.7511
    20.9023  26.1330  27.5777  30.5175

          k =-0.8660-0.8660-0.8660 (   370 PWs)   bands (ev):

   -67.2845 -33.5290 -33.5290 -33.5290  15.2337  15.2337  20.5751  20.5751
    20.5751  28.3497  28.3497  28.3497

     the Fermi energy is    18.3901 ev

!    total energy              =    -329.05832577 Ry
     total all-electron energy =     -2545.354859 Ry
     estimated scf accuracy    <       0.00000048 Ry
     smearing contrib. (-TS)   =       0.00168625 Ry
     internal energy E=F+TS    =    -329.06001202 Ry

     The total energy is F=E-TS. E is the sum of the following terms:
     one-electron contribution =    -109.16450744 Ry
     hartree contribution      =      64.69275385 Ry
     xc contribution           =     -27.74013149 Ry
     ewald contribution        =    -174.09995577 Ry
     one-center paw contrib.   =     -82.74817116 Ry

     total magnetization       =     2.19 Bohr mag/cell
     absolute magnetization    =     2.31 Bohr mag/cell

     convergence has been achieved in   6 iterations

     negative rho (up, down):  0.000E+00 3.606E-04

     Forces acting on atoms (cartesian axes, Ry/au):

     atom    1 type  1   force =     0.00000000    0.00000000    0.00000000

     Total force =     0.000000     Total SCF correction =     0.000000


     Computing stress (Cartesian axis) and pressure


     negative rho (up, down):  0.000E+00 3.606E-04
          total   stress  (Ry/bohr**3)                   (kbar)     P=    -2652.61
  -0.01803207   0.00000000  -0.00000000        -2652.61        0.00       -0.00
   0.00000000  -0.01803207   0.00000000            0.00    -2652.61        0.00
  -0.00000000   0.00000000  -0.01803207           -0.00        0.00    -2652.61


     Writing all to output data dir ./pwscf.save/ :
     XML data file, charge density, pseudopotentials, collected wavefunctions

     init_run     :      0.76s CPU      0.82s WALL (       1 calls)
     electrons    :      4.38s CPU      4.63s WALL (       1 calls)
     forces       :      0.07s CPU      0.07s WALL (       1 calls)
     stress       :      0.28s CPU      0.29s WALL (       1 calls)

     Called by init_run:
     wfcinit      :      0.07s CPU      0.07s WALL (       1 calls)
     potinit      :      0.40s CPU      0.45s WALL (       1 calls)
     hinit0       :      0.25s CPU      0.26s WALL (       1 calls)

     Called by electrons:
     c_bands      :      1.42s CPU      1.44s WALL (       7 calls)
     sum_band     :      0.46s CPU      0.46s WALL (       7 calls)
     v_of_rho     :      0.11s CPU      0.11s WALL (       7 calls)
     newd         :      0.14s CPU      0.19s WALL (       7 calls)
     PAW_pot      :      2.63s CPU      2.86s WALL (       7 calls)
     mix_rho      :      0.01s CPU      0.01s WALL (       7 calls)

     Called by c_bands:
     init_us_2    :      0.03s CPU      0.03s WALL (     544 calls)
     cegterg      :      1.38s CPU      1.39s WALL (     224 calls)

     Called by *egterg:
     cdiaghg      :      0.08s CPU      0.09s WALL (     731 calls)
     h_psi        :      1.07s CPU      1.08s WALL (     795 calls)
     s_psi        :      0.04s CPU      0.05s WALL (     795 calls)
     g_psi        :      0.00s CPU      0.00s WALL (     539 calls)

     Called by h_psi:
     h_psi:calbec :      0.06s CPU      0.06s WALL (     795 calls)
     vloc_psi     :      0.96s CPU      0.97s WALL (     795 calls)
                                        0.00s GPU  (     795 calls)
     add_vuspsi   :      0.04s CPU      0.05s WALL (     795 calls)

     General routines
     calbec       :      0.14s CPU      0.14s WALL (    1563 calls)
     fft          :      0.06s CPU      0.06s WALL (     215 calls)
     ffts         :      0.00s CPU      0.00s WALL (      28 calls)
     fftw         :      1.05s CPU      1.06s WALL (   16560 calls)
     interpolate  :      0.01s CPU      0.01s WALL (      14 calls)

     Parallel routines

     PWSCF        :      5.61s CPU      5.94s WALL


   This run was terminated on:  15:54:13  15Mar2026            

=------------------------------------------------------------------------------=
   JOB DONE.
=------------------------------------------------------------------------------=
