
     Program PWSCF v.7.5 starts on 15Mar2026 at 15:55: 6 

     This program is part of the open-source Quantum ESPRESSO suite
     for quantum simulation of materials; please cite
         "P. Giannozzi et al., J. Phys.:Condens. Matter 21 395502 (2009);
         "P. Giannozzi et al., J. Phys.:Condens. Matter 29 465901 (2017);
         "P. Giannozzi et al., J. Chem. Phys. 152 154105 (2020);
          URL http://www.quantum-espresso.org", 
     in publications or presentations arising from this work. More details at
     http://www.quantum-espresso.org/quote

     Parallel version (MPI), running on     1 processors

     MPI processes distributed on     1 nodes
     3352 MiB available memory on the printing compute node when the environment starts

     Reading input from espresso.pwi
Warning: card &CELL ignored
Warning: card &FCP ignored
Warning: card &RISM ignored

     Current dimensions of program PWSCF are:
     Max number of different atomic species (ntypx) = 10
     Max number of k-points (npk) =  40000
     Max angular momentum in pseudopotentials (lmaxx) =  4
     file Mg.pbe-spnl-kjpaw_psl.1.0.0.UPF: wavefunction(s)  2P renormalized
     Message from routine setup:
     using ibrav=0 with symmetry is DISCOURAGED, use correct ibrav instead

     Subspace diagonalization in iterative solution of the eigenvalue problem:
     a serial algorithm will be used


     G-vector sticks info
     --------------------
     sticks:   dense  smooth     PW     G-vecs:    dense   smooth      PW
     Sum         745     367    121                13539     4693     893

     Using Slab Decomposition



     bravais-lattice index     =            0
     lattice parameter (alat)  =       5.8234  a.u.
     unit-cell volume          =     139.6402 (a.u.)^3
     number of atoms/cell      =            1
     number of atomic types    =            1
     number of electrons       =        10.00
     number of Kohn-Sham states=            9
     kinetic-energy cutoff     =      40.0000  Ry
     charge density cutoff     =     320.0000  Ry
     scf convergence threshold =      1.0E-06
     mixing beta               =       0.7000
     number of iterations used =            8  plain     mixing
     Exchange-correlation= SLA  PW   PBX  PBC
                           (   1   4   3   4   0   0   0)

     celldm(1)=   5.823380  celldm(2)=   0.000000  celldm(3)=   0.000000
     celldm(4)=   0.000000  celldm(5)=   0.000000  celldm(6)=   0.000000

     crystal axes: (cart. coord. in units of alat)
               a(1) = (   0.000000   0.707107   0.707107 )  
               a(2) = (   0.707107   0.000000   0.707107 )  
               a(3) = (   0.707107   0.707107   0.000000 )  

     reciprocal axes: (cart. coord. in units 2 pi/alat)
               b(1) = ( -0.707107  0.707107  0.707107 )  
               b(2) = (  0.707107 -0.707107  0.707107 )  
               b(3) = (  0.707107  0.707107 -0.707107 )  


     PseudoPot. # 1 for Mg read from file:
     /home/kenobi/Workspaces/PHYS400/pseudopotentials/Mg.pbe-spnl-kjpaw_psl.1.0.0.UPF
     MD5 check sum: fda14e0d92a6a9a5ebed782e5a4b3067
     Pseudo is Projector augmented-wave + core cor, Zval = 10.0
     Generated using &quot;atomic&quot; code by A. Dal Corso  v.6.3
     Shape of augmentation charge: PSQ
     Using radial grid of 1129 points,  4 beta functions with: 
                l(1) =   0
                l(2) =   0
                l(3) =   1
                l(4) =   1
     Q(r) pseudized with 0 coefficients 


     atomic species   valence    mass     pseudopotential
     Mg               10.00    24.30500     Mg( 1.00)

     48 Sym. Ops., with inversion, found



   Cartesian axes

     site n.     atom                  positions (alat units)
         1        Mg     tau(   1) = (   0.0000000   0.0000000   0.0000000  )

     number of k points=    16  Marzari-Vanderbilt smearing, width (Ry)=  0.0200
                       cart. coord. in units 2pi/alat
        k(    1) = (   0.0000000   0.0000000   0.0000000), wk =   0.0092593
        k(    2) = (   0.1178511   0.1178511  -0.1178511), wk =   0.0740741
        k(    3) = (   0.2357023   0.2357023  -0.2357023), wk =   0.0740741
        k(    4) = (  -0.3535534  -0.3535534   0.3535534), wk =   0.0370370
        k(    5) = (   0.2357023   0.0000000   0.0000000), wk =   0.0555556
        k(    6) = (   0.3535534   0.1178511  -0.1178511), wk =   0.2222222
        k(    7) = (  -0.2357023  -0.4714045   0.4714045), wk =   0.2222222
        k(    8) = (  -0.1178511  -0.3535534   0.3535534), wk =   0.2222222
        k(    9) = (   0.0000000  -0.2357023   0.2357023), wk =   0.1111111
        k(   10) = (   0.4714045   0.0000000   0.0000000), wk =   0.0555556
        k(   11) = (  -0.1178511  -0.5892557   0.5892557), wk =   0.2222222
        k(   12) = (  -0.0000000  -0.4714045   0.4714045), wk =   0.1111111
        k(   13) = (  -0.7071068   0.0000000   0.0000000), wk =   0.0277778
        k(   14) = (  -0.2357023  -0.4714045   0.7071068), wk =   0.2222222
        k(   15) = (  -0.1178511  -0.3535534   0.5892557), wk =   0.2222222
        k(   16) = (  -0.7071068   0.2357023   0.0000000), wk =   0.1111111

     Dense  grid:    13539 G-vectors     FFT dimensions: (  36,  36,  36)

     Smooth grid:     4693 G-vectors     FFT dimensions: (  24,  24,  24)

     Estimated max dynamical RAM per process >      20.97 MB

     Check: negative core charge=   -0.000016

     Initial potential from superposition of free atoms

     starting charge       9.9991, renormalised to      10.0000
     Starting wfcs are    5 randomized atomic wfcs +    4 random wfcs
     Checking if some PAW data can be deallocated... 

     total cpu time spent up to now is        0.4 secs

     Self-consistent Calculation

     iteration #  1     ecut=    40.00 Ry     beta= 0.70
     Davidson diagonalization with overlap
     ethr =  1.00E-02,  avg # of iterations =  5.9

     Threshold (ethr) on eigenvalues was too large:
     Diagonalizing with lowered threshold

     Davidson diagonalization with overlap
     ethr =  5.41E-05,  avg # of iterations =  4.1

     total cpu time spent up to now is        0.7 secs

     total energy              =    -141.34753985 Ry
     estimated scf accuracy    <       0.00558619 Ry

     iteration #  2     ecut=    40.00 Ry     beta= 0.70
     Davidson diagonalization with overlap
     ethr =  5.59E-05,  avg # of iterations =  1.9

     total cpu time spent up to now is        0.9 secs

     total energy              =    -141.34807822 Ry
     estimated scf accuracy    <       0.00034900 Ry

     iteration #  3     ecut=    40.00 Ry     beta= 0.70
     Davidson diagonalization with overlap
     ethr =  3.49E-06,  avg # of iterations =  2.3

     total cpu time spent up to now is        1.0 secs

     total energy              =    -141.34810159 Ry
     estimated scf accuracy    <       0.00001502 Ry

     iteration #  4     ecut=    40.00 Ry     beta= 0.70
     Davidson diagonalization with overlap
     ethr =  1.50E-07,  avg # of iterations =  4.0

     total cpu time spent up to now is        1.2 secs

     End of self-consistent calculation

          k = 0.0000 0.0000 0.0000 (   609 PWs)   bands (ev):

   -69.9292 -36.6382 -36.6382 -36.6382  -1.0796  19.2502  19.2502  19.2503
    21.6769

          k = 0.1179 0.1179-0.1179 (   582 PWs)   bands (ev):

   -69.9279 -36.6287 -36.6175 -36.6175  -0.3988  14.2762  18.5282  18.5282
    21.0830

          k = 0.2357 0.2357-0.2357 (   601 PWs)   bands (ev):

   -69.9257 -36.6755 -36.6324 -36.6324   1.5294   9.0058  18.0185  18.0185
    20.4528

          k =-0.3536-0.3536 0.3536 (   580 PWs)   bands (ev):

   -69.9244 -36.6435 -36.6255 -36.6255   4.3931   5.0596  18.0729  18.0730
    19.5187

          k = 0.2357 0.0000 0.0000 (   584 PWs)   bands (ev):

   -69.9275 -36.6315 -36.6211 -36.6211  -0.1821  15.9465  16.6360  16.6360
    18.6864

          k = 0.3536 0.1179-0.1179 (   598 PWs)   bands (ev):

   -69.9257 -36.6657 -36.6318 -36.6309   1.3162  11.1238  15.6600  15.7554
    17.3444

          k =-0.2357-0.4714 0.4714 (   594 PWs)   bands (ev):

   -69.9241 -36.6639 -36.6351 -36.6331   4.0321   6.6028  13.8876  15.9404
    17.4806

          k =-0.1179-0.3536 0.3536 (   596 PWs)   bands (ev):

   -69.9245 -36.6650 -36.6370 -36.6317   3.0095   7.9736  13.0502  17.2164
    18.8390

          k = 0.0000-0.2357 0.2357 (   596 PWs)   bands (ev):

   -69.9264 -36.6577 -36.6303 -36.6272   0.6762  12.3058  13.8970  19.6015
    20.9602

          k = 0.4714 0.0000 0.0000 (   592 PWs)   bands (ev):

   -69.9245 -36.6483 -36.6347 -36.6347   2.3853  12.1984  13.3813  14.5076
    14.5076

          k =-0.1179-0.5893 0.5893 (   594 PWs)   bands (ev):

   -69.9234 -36.6557 -36.6426 -36.6368   4.6523   9.1882  10.1141  14.3303
    15.3539

          k =-0.0000-0.4714 0.4714 (   598 PWs)   bands (ev):

   -69.9234 -36.6602 -36.6498 -36.6354   5.6469   7.5677   9.1035  15.2374
    16.5687

          k =-0.7071 0.0000 0.0000 (   588 PWs)   bands (ev):

   -69.9229 -36.6561 -36.6330 -36.6330   6.0167   7.1680  12.5171  13.8022
    13.8022

          k =-0.2357-0.4714 0.7071 (   598 PWs)   bands (ev):

   -69.9241 -36.6613 -36.6447 -36.6333   3.2148   9.9220  11.3128  13.6431
    19.5808

          k =-0.1179-0.3536 0.5893 (   596 PWs)   bands (ev):

   -69.9234 -36.6643 -36.6450 -36.6290   5.9711   6.6381  10.8313  12.3786
    21.0872

          k =-0.7071 0.2357 0.0000 (   600 PWs)   bands (ev):

   -69.9230 -36.6699 -36.6515 -36.6324   6.7846   7.8392   9.1287  11.2675
    18.8243

     the Fermi energy is     6.4784 ev

!    total energy              =    -141.34810547 Ry
     total all-electron energy =      -400.618374 Ry
     estimated scf accuracy    <       0.00000015 Ry
     smearing contrib. (-TS)   =      -0.00039022 Ry
     internal energy E=F+TS    =    -141.34771525 Ry

     The total energy is F=E-TS. E is the sum of the following terms:
     one-electron contribution =    -103.02022757 Ry
     hartree contribution      =      49.84820856 Ry
     xc contribution           =     -17.54741577 Ry
     ewald contribution        =     -55.67191303 Ry
     one-center paw contrib.   =     -14.95636743 Ry

     convergence has been achieved in   4 iterations

     Forces acting on atoms (cartesian axes, Ry/au):

     atom    1 type  1   force =     0.00000000    0.00000000    0.00000000

     Total force =     0.000000     Total SCF correction =     0.000000


     Computing stress (Cartesian axis) and pressure

          total   stress  (Ry/bohr**3)                   (kbar)     P=     -245.53
  -0.00166907   0.00000000   0.00000000         -245.53        0.00        0.00
   0.00000000  -0.00166907   0.00000000            0.00     -245.53        0.00
   0.00000000   0.00000000  -0.00166907            0.00        0.00     -245.53


     Writing all to output data dir ./pwscf.save/ :
     XML data file, charge density, pseudopotentials, collected wavefunctions

     init_run     :      0.26s CPU      0.27s WALL (       1 calls)
     electrons    :      0.86s CPU      0.87s WALL (       1 calls)
     forces       :      0.03s CPU      0.03s WALL (       1 calls)
     stress       :      0.11s CPU      0.11s WALL (       1 calls)

     Called by init_run:
     wfcinit      :      0.04s CPU      0.04s WALL (       1 calls)
     potinit      :      0.06s CPU      0.08s WALL (       1 calls)
     hinit0       :      0.14s CPU      0.14s WALL (       1 calls)

     Called by electrons:
     c_bands      :      0.51s CPU      0.52s WALL (       5 calls)
     sum_band     :      0.11s CPU      0.12s WALL (       5 calls)
     v_of_rho     :      0.07s CPU      0.08s WALL (       5 calls)
     newd         :      0.03s CPU      0.03s WALL (       5 calls)
     PAW_pot      :      0.17s CPU      0.18s WALL (       5 calls)
     mix_rho      :      0.00s CPU      0.00s WALL (       5 calls)

     Called by c_bands:
     init_us_2    :      0.01s CPU      0.01s WALL (     208 calls)
     cegterg      :      0.50s CPU      0.51s WALL (      80 calls)

     Called by *egterg:
     cdiaghg      :      0.02s CPU      0.02s WALL (     355 calls)
     h_psi        :      0.40s CPU      0.40s WALL (     387 calls)
     s_psi        :      0.01s CPU      0.01s WALL (     387 calls)
     g_psi        :      0.00s CPU      0.00s WALL (     291 calls)

     Called by h_psi:
     h_psi:calbec :      0.01s CPU      0.01s WALL (     387 calls)
     vloc_psi     :      0.37s CPU      0.37s WALL (     387 calls)
                                        0.00s GPU  (     387 calls)
     add_vuspsi   :      0.01s CPU      0.01s WALL (     387 calls)

     General routines
     calbec       :      0.04s CPU      0.04s WALL (     739 calls)
     fft          :      0.04s CPU      0.04s WALL (      89 calls)
     ffts         :      0.00s CPU      0.00s WALL (      10 calls)
     fftw         :      0.39s CPU      0.39s WALL (    4824 calls)
     interpolate  :      0.00s CPU      0.00s WALL (       5 calls)

     Parallel routines

     PWSCF        :      1.34s CPU      1.37s WALL


   This run was terminated on:  15:55: 8  15Mar2026            

=------------------------------------------------------------------------------=
   JOB DONE.
=------------------------------------------------------------------------------=
