
     Program PWSCF v.7.5 starts on 15Mar2026 at 15:54:30 

     This program is part of the open-source Quantum ESPRESSO suite
     for quantum simulation of materials; please cite
         "P. Giannozzi et al., J. Phys.:Condens. Matter 21 395502 (2009);
         "P. Giannozzi et al., J. Phys.:Condens. Matter 29 465901 (2017);
         "P. Giannozzi et al., J. Chem. Phys. 152 154105 (2020);
          URL http://www.quantum-espresso.org", 
     in publications or presentations arising from this work. More details at
     http://www.quantum-espresso.org/quote

     Parallel version (MPI), running on     1 processors

     MPI processes distributed on     1 nodes
     3334 MiB available memory on the printing compute node when the environment starts

     Reading input from espresso.pwi
Warning: card &CELL ignored
Warning: card &FCP ignored
Warning: card &RISM ignored

     Current dimensions of program PWSCF are:
     Max number of different atomic species (ntypx) = 10
     Max number of k-points (npk) =  40000
     Max angular momentum in pseudopotentials (lmaxx) =  4
     file Fe.pbe-spn-kjpaw_psl.1.0.0.UPF: wavefunction(s)  3P 3D renormalized
     Message from routine setup:
     using ibrav=0 with symmetry is DISCOURAGED, use correct ibrav instead

     Subspace diagonalization in iterative solution of the eigenvalue problem:
     a serial algorithm will be used


     G-vector sticks info
     --------------------
     sticks:   dense  smooth     PW     G-vecs:    dense   smooth      PW
     Sum         557     277    117                 8391     2899     791

     Using Slab Decomposition



     bravais-lattice index     =            0
     lattice parameter (alat)  =       4.8222  a.u.
     unit-cell volume          =      86.3179 (a.u.)^3
     number of atoms/cell      =            1
     number of atomic types    =            1
     number of electrons       =        16.00
     number of Kohn-Sham states=           12
     kinetic-energy cutoff     =      40.0000  Ry
     charge density cutoff     =     320.0000  Ry
     scf convergence threshold =      1.0E-06
     mixing beta               =       0.7000
     number of iterations used =            8  plain     mixing
     Exchange-correlation= SLA  PW   PBX  PBC
                           (   1   4   3   4   0   0   0)

     celldm(1)=   4.822152  celldm(2)=   0.000000  celldm(3)=   0.000000
     celldm(4)=   0.000000  celldm(5)=   0.000000  celldm(6)=   0.000000

     crystal axes: (cart. coord. in units of alat)
               a(1) = (  -0.577350   0.577350   0.577350 )  
               a(2) = (   0.577350  -0.577350   0.577350 )  
               a(3) = (   0.577350   0.577350  -0.577350 )  

     reciprocal axes: (cart. coord. in units 2 pi/alat)
               b(1) = (  0.000000  0.866025  0.866025 )  
               b(2) = (  0.866025  0.000000  0.866025 )  
               b(3) = (  0.866025  0.866025  0.000000 )  


     PseudoPot. # 1 for Fe read from file:
     /home/kenobi/Workspaces/PHYS400/pseudopotentials/Fe.pbe-spn-kjpaw_psl.1.0.0.UPF
     MD5 check sum: fc81f059e5c5069939230b1155715ae8
     Pseudo is Projector augmented-wave + core cor, Zval = 16.0
     Generated using &quot;atomic&quot; code by A. Dal Corso  v.6.3
     Shape of augmentation charge: PSQ
     Using radial grid of 1191 points,  6 beta functions with: 
                l(1) =   0
                l(2) =   0
                l(3) =   1
                l(4) =   1
                l(5) =   2
                l(6) =   2
     Q(r) pseudized with 0 coefficients 


     atomic species   valence    mass     pseudopotential
     Fe               16.00    55.84500     Fe( 1.00)

     Starting magnetic structure 
     atomic species   magnetization
     Fe              0.144

     48 Sym. Ops., with inversion, found



   Cartesian axes

     site n.     atom                  positions (alat units)
         1        Fe     tau(   1) = (   0.0000000   0.0000000   0.0000000  )

     number of k points=    16  Marzari-Vanderbilt smearing, width (Ry)=  0.0200
                       cart. coord. in units 2pi/alat
        k(    1) = (   0.0000000   0.0000000   0.0000000), wk =   0.0046296
        k(    2) = (   0.1443376   0.1443376   0.0000000), wk =   0.0555556
        k(    3) = (   0.2886751   0.2886751   0.0000000), wk =   0.0555556
        k(    4) = (  -0.4330127  -0.4330127   0.0000000), wk =   0.0277778
        k(    5) = (   0.2886751   0.1443376   0.1443376), wk =   0.1111111
        k(    6) = (   0.4330127   0.2886751   0.1443376), wk =   0.2222222
        k(    7) = (   0.5773503   0.2886751   0.2886751), wk =   0.0370370
        k(    8) = (   0.2886751   0.2886751   0.2886751), wk =   0.0370370
        k(    9) = (   0.4330127   0.4330127   0.2886751), wk =   0.0555556
        k(   10) = (   0.0000000   0.0000000   0.2886751), wk =   0.0277778
        k(   11) = (  -0.0000000  -0.1443376   0.4330127), wk =   0.1111111
        k(   12) = (  -0.8660254  -0.2886751  -0.2886751), wk =   0.0555556
        k(   13) = (  -0.7216878  -0.1443376  -0.2886751), wk =   0.1111111
        k(   14) = (  -0.0000000  -0.0000000   0.5773503), wk =   0.0277778
        k(   15) = (  -0.8660254  -0.1443376  -0.1443376), wk =   0.0555556
        k(   16) = (  -0.8660254  -0.8660254  -0.8660254), wk =   0.0046296

     Dense  grid:     8391 G-vectors     FFT dimensions: (  27,  27,  27)

     Smooth grid:     2899 G-vectors     FFT dimensions: (  20,  20,  20)

     Estimated max dynamical RAM per process >      37.80 MB

     Check: negative core charge=   -0.000008
     Generating pointlists ...
     new r_m :   0.4125 (alat units)  1.9891 (a.u.) for type    1

     Initial potential from superposition of free atoms

     starting charge      15.9996, renormalised to      16.0000
     Starting wfcs are   10 randomized atomic wfcs +    2 random wfcs
     Checking if some PAW data can be deallocated... 

     total cpu time spent up to now is        1.0 secs

     Self-consistent Calculation

     iteration #  1     ecut=    40.00 Ry     beta= 0.70
     Davidson diagonalization with overlap
     ethr =  1.00E-02,  avg # of iterations =  4.7

     Threshold (ethr) on eigenvalues was too large:
     Diagonalizing with lowered threshold

     Davidson diagonalization with overlap
     ethr =  2.93E-04,  avg # of iterations =  1.8

     negative rho (up, down):  0.000E+00 1.111E-04

     total cpu time spent up to now is        2.0 secs

     total energy              =    -329.02252740 Ry
     estimated scf accuracy    <       0.04921956 Ry

     total magnetization       =     2.31 Bohr mag/cell
     absolute magnetization    =     2.32 Bohr mag/cell

     iteration #  2     ecut=    40.00 Ry     beta= 0.70
     Davidson diagonalization with overlap
     ethr =  3.08E-04,  avg # of iterations =  2.8

     negative rho (up, down):  0.000E+00 1.316E-04

     total cpu time spent up to now is        2.8 secs

     total energy              =    -329.02142729 Ry
     estimated scf accuracy    <       0.15948733 Ry

     total magnetization       =     2.48 Bohr mag/cell
     absolute magnetization    =     2.55 Bohr mag/cell

     iteration #  3     ecut=    40.00 Ry     beta= 0.70
     Davidson diagonalization with overlap
     ethr =  3.08E-04,  avg # of iterations =  2.2

     negative rho (up, down):  0.000E+00 4.234E-04

     total cpu time spent up to now is        3.5 secs

     total energy              =    -329.05001825 Ry
     estimated scf accuracy    <       0.00121173 Ry

     total magnetization       =     2.34 Bohr mag/cell
     absolute magnetization    =     2.44 Bohr mag/cell

     iteration #  4     ecut=    40.00 Ry     beta= 0.70
     Davidson diagonalization with overlap
     ethr =  7.57E-06,  avg # of iterations =  2.6

     negative rho (up, down):  0.000E+00 4.653E-04

     total cpu time spent up to now is        4.2 secs

     total energy              =    -329.05070584 Ry
     estimated scf accuracy    <       0.00014911 Ry

     total magnetization       =     2.35 Bohr mag/cell
     absolute magnetization    =     2.51 Bohr mag/cell

     iteration #  5     ecut=    40.00 Ry     beta= 0.70
     Davidson diagonalization with overlap
     ethr =  9.32E-07,  avg # of iterations =  2.2

     negative rho (up, down):  0.000E+00 4.680E-04

     total cpu time spent up to now is        5.0 secs

     total energy              =    -329.05080198 Ry
     estimated scf accuracy    <       0.00006331 Ry

     total magnetization       =     2.37 Bohr mag/cell
     absolute magnetization    =     2.54 Bohr mag/cell

     iteration #  6     ecut=    40.00 Ry     beta= 0.70
     Davidson diagonalization with overlap
     ethr =  3.96E-07,  avg # of iterations =  1.6

     negative rho (up, down):  0.000E+00 4.754E-04

     total cpu time spent up to now is        5.7 secs

     total energy              =    -329.05082828 Ry
     estimated scf accuracy    <       0.00000502 Ry

     total magnetization       =     2.38 Bohr mag/cell
     absolute magnetization    =     2.57 Bohr mag/cell

     iteration #  7     ecut=    40.00 Ry     beta= 0.70
     Davidson diagonalization with overlap
     ethr =  3.14E-08,  avg # of iterations =  2.2

     negative rho (up, down):  0.000E+00 4.778E-04

     total cpu time spent up to now is        6.4 secs

     total energy              =    -329.05083413 Ry
     estimated scf accuracy    <       0.00000132 Ry

     total magnetization       =     2.39 Bohr mag/cell
     absolute magnetization    =     2.58 Bohr mag/cell

     iteration #  8     ecut=    40.00 Ry     beta= 0.70
     Davidson diagonalization with overlap
     ethr =  8.25E-09,  avg # of iterations =  2.0

     negative rho (up, down):  0.000E+00 4.774E-04

     Magnetic moment per site  (integrated on atomic sphere of radius R)
     atom   1 (R=0.413)  charge= 14.4845  magn=  2.4781

     total cpu time spent up to now is        7.1 secs

     End of self-consistent calculation

 ------ SPIN UP ------------


          k = 0.0000 0.0000 0.0000 (   369 PWs)   bands (ev):

   -72.5901 -38.3424 -38.3424 -38.3424   7.9841  13.7583  13.7583  13.7583
    14.6546  14.6546  39.2544  39.2544

          k = 0.1443 0.1443 0.0000 (   368 PWs)   bands (ev):

   -72.5776 -38.3855 -38.3680 -38.3367   8.9940  13.4928  13.7028  14.2742
    14.5251  14.7500  34.0096  37.3166

          k = 0.2887 0.2887 0.0000 (   368 PWs)   bands (ev):

   -72.5539 -38.5364 -38.4066 -38.3113  11.0730  13.0397  13.9560  14.7876
    14.8976  15.3207  26.6248  34.1594

          k =-0.4330-0.4330 0.0000 (   360 PWs)   bands (ev):

   -72.5394 -38.5563 -38.4053 -38.2928  11.5306  12.8766  14.8746  15.0855
    15.9764  16.2657  22.1882  32.9315

          k = 0.2887 0.1443 0.1443 (   363 PWs)   bands (ev):

   -72.5589 -38.4779 -38.3664 -38.3323  10.7057  13.2742  13.3731  14.5071
    14.9824  15.3102  30.4019  31.1879

          k = 0.4330 0.2887 0.1443 (   372 PWs)   bands (ev):

   -72.5423 -38.5572 -38.4421 -38.3510  11.9302  12.9306  13.7964  14.7093
    15.1444  17.5203  23.9992  28.8083

          k = 0.5774 0.2887 0.2887 (   375 PWs)   bands (ev):

   -72.5372 -38.5206 -38.5206 -38.3744  12.5773  13.0493  13.0493  14.9438
    14.9438  21.8541  21.8541  24.0817

          k = 0.2887 0.2887 0.2887 (   354 PWs)   bands (ev):

   -72.5434 -38.5060 -38.3448 -38.3448  12.4955  12.9212  12.9212  14.9784
    14.9784  17.5444  27.7961  27.7961

          k = 0.4330 0.4330 0.2887 (   362 PWs)   bands (ev):

   -72.5384 -38.5031 -38.4454 -38.3532  12.5902  12.8306  13.4830  14.9425
    15.0280  20.6699  22.7748  26.8799

          k = 0.0000 0.0000 0.2887 (   361 PWs)   bands (ev):

   -72.5648 -38.3904 -38.3577 -38.3577   9.9251  13.8769  13.8769  13.9696
    14.3091  15.0849  34.0141  34.9337

          k =-0.0000-0.1443 0.4330 (   374 PWs)   bands (ev):

   -72.5448 -38.5209 -38.4281 -38.3902  11.6893  13.1502  13.5756  14.3553
    15.2417  15.9862  27.3317  31.7245

          k =-0.8660-0.2887-0.2887 (   380 PWs)   bands (ev):

   -72.5348 -38.5946 -38.4697 -38.3899  11.9348  13.2992  13.3895  14.4307
    15.8165  18.6581  22.3287  30.3610

          k =-0.7217-0.1443-0.2887 (   370 PWs)   bands (ev):

   -72.5282 -38.5286 -38.4806 -38.3948  12.4893  12.5755  13.5805  14.8429
    15.4723  19.3473  24.9089  25.6350

          k =-0.0000-0.0000 0.5774 (   370 PWs)   bands (ev):

   -72.5241 -38.4758 -38.4708 -38.4708  12.1508  12.3850  14.6963  14.6963
    15.2601  18.2865  28.0759  28.0759

          k =-0.8660-0.1443-0.1443 (   380 PWs)   bands (ev):

   -72.5170 -38.5434 -38.5108 -38.5077  11.9553  12.0148  14.7451  14.9884
    15.7967  22.1707  23.3703  26.5084

          k =-0.8660-0.8660-0.8660 (   370 PWs)   bands (ev):

   -72.5077 -38.5270 -38.5270 -38.5270  11.6196  11.6196  15.7566  15.7566
    15.7566  24.7914  24.7914  24.7914

 ------ SPIN DOWN ----------


          k = 0.0000 0.0000 0.0000 (   369 PWs)   bands (ev):

   -69.6672 -35.4749 -35.4749 -35.4749   8.0403  15.9418  15.9418  15.9418
    17.5607  17.5607  38.8874  38.8874

          k = 0.1443 0.1443 0.0000 (   368 PWs)   bands (ev):

   -69.6538 -35.5275 -35.5034 -35.4686   9.0653  15.6126  15.8271  16.5164
    17.3394  17.6609  34.3337  37.2476

          k = 0.2887 0.2887 0.0000 (   368 PWs)   bands (ev):

   -69.6281 -35.6959 -35.5470 -35.4443  11.5688  15.0467  15.4301  17.4807
    17.7293  17.8407  27.4731  34.1326

          k =-0.4330-0.4330 0.0000 (   360 PWs)   bands (ev):

   -69.6133 -35.7252 -35.5487 -35.4258  12.8740  14.8306  16.2469  17.6102
    18.0547  18.5047  23.6561  32.8591

          k = 0.2887 0.1443 0.1443 (   363 PWs)   bands (ev):

   -69.6338 -35.6316 -35.5053 -35.4671  10.8993  15.2983  15.3514  17.2190
    17.5653  17.9220  30.9597  31.7172

          k = 0.4330 0.2887 0.1443 (   372 PWs)   bands (ev):

   -69.6153 -35.7205 -35.5876 -35.4864  13.1129  14.8271  15.2088  17.4068
    17.9312  19.3197  25.0559  29.3596

          k = 0.5774 0.2887 0.2887 (   375 PWs)   bands (ev):

   -69.6094 -35.6769 -35.6769 -35.5114  14.2946  14.6405  14.6405  17.6629
    17.6629  22.9582  22.9582  24.9933

          k = 0.2887 0.2887 0.2887 (   354 PWs)   bands (ev):

   -69.6177 -35.6666 -35.4856 -35.4856  13.0617  14.7415  14.7415  17.8795
    17.8795  19.5174  28.4409  28.4409

          k = 0.4330 0.4330 0.2887 (   362 PWs)   bands (ev):

   -69.6116 -35.6618 -35.5942 -35.4945  14.0749  14.5671  14.8297  17.8393
    18.0080  21.8159  23.9141  27.5392

          k = 0.0000 0.0000 0.2887 (   361 PWs)   bands (ev):

   -69.6404 -35.5349 -35.4957 -35.4957  10.0322  15.9916  15.9916  16.5607
    16.5899  18.0102  34.2228  35.4639

          k =-0.0000-0.1443 0.4330 (   374 PWs)   bands (ev):

   -69.6178 -35.6788 -35.5716 -35.5292  12.3120  15.1943  15.6318  16.7059
    17.6338  18.4069  28.1192  32.3214

          k =-0.8660-0.2887-0.2887 (   380 PWs)   bands (ev):

   -69.6065 -35.7596 -35.6159 -35.5287  13.4863  14.9635  15.4078  16.9017
    18.3376  19.8733  23.6424  30.8968

          k =-0.7217-0.1443-0.2887 (   370 PWs)   bands (ev):

   -69.6000 -35.6894 -35.6328 -35.5358  13.9404  14.5184  15.5753  17.1940
    17.9406  20.7336  25.8229  26.3574

          k =-0.0000-0.0000 0.5774 (   370 PWs)   bands (ev):

   -69.5957 -35.6311 -35.6211 -35.6211  13.5009  14.5119  16.8696  16.8696
    17.6680  19.7322  28.6139  28.6139

          k =-0.8660-0.1443-0.1443 (   380 PWs)   bands (ev):

   -69.5870 -35.7030 -35.6636 -35.6578  13.8727  13.8848  16.9829  17.2264
    18.2991  22.9104  24.1473  26.9210

          k =-0.8660-0.8660-0.8660 (   370 PWs)   bands (ev):

   -69.5771 -35.6833 -35.6833 -35.6833  13.5441  13.5441  18.2507  18.2507
    18.2507  24.9878  24.9878  24.9878

     the Fermi energy is    15.8168 ev

!    total energy              =    -329.05083477 Ry
     total all-electron energy =     -2545.347368 Ry
     estimated scf accuracy    <       0.00000023 Ry
     smearing contrib. (-TS)   =       0.00168371 Ry
     internal energy E=F+TS    =    -329.05251848 Ry

     The total energy is F=E-TS. E is the sum of the following terms:
     one-electron contribution =    -120.01041854 Ry
     hartree contribution      =      68.70483079 Ry
     xc contribution           =     -27.68412979 Ry
     ewald contribution        =    -167.31684061 Ry
     one-center paw contrib.   =     -82.74596032 Ry

     total magnetization       =     2.39 Bohr mag/cell
     absolute magnetization    =     2.58 Bohr mag/cell

     convergence has been achieved in   8 iterations

     negative rho (up, down):  0.000E+00 4.774E-04

     Forces acting on atoms (cartesian axes, Ry/au):

     atom    1 type  1   force =     0.00000000    0.00000000    0.00000000

     Total force =     0.000000     Total SCF correction =     0.000000


     Computing stress (Cartesian axis) and pressure


     negative rho (up, down):  0.000E+00 4.774E-04
          total   stress  (Ry/bohr**3)                   (kbar)     P=    -2521.59
  -0.01714140  -0.00000000   0.00000000        -2521.59       -0.00        0.00
  -0.00000000  -0.01714140   0.00000000           -0.00    -2521.59        0.00
   0.00000000   0.00000000  -0.01714140            0.00        0.00    -2521.59


     Writing all to output data dir ./pwscf.save/ :
     XML data file, charge density, pseudopotentials, collected wavefunctions

     init_run     :      0.78s CPU      0.83s WALL (       1 calls)
     electrons    :      5.85s CPU      6.17s WALL (       1 calls)
     forces       :      0.08s CPU      0.08s WALL (       1 calls)
     stress       :      0.32s CPU      0.32s WALL (       1 calls)

     Called by init_run:
     wfcinit      :      0.08s CPU      0.08s WALL (       1 calls)
     potinit      :      0.41s CPU      0.45s WALL (       1 calls)
     hinit0       :      0.26s CPU      0.26s WALL (       1 calls)

     Called by electrons:
     c_bands      :      1.89s CPU      1.91s WALL (       9 calls)
     sum_band     :      0.64s CPU      0.65s WALL (       9 calls)
     v_of_rho     :      0.14s CPU      0.15s WALL (       9 calls)
     newd         :      0.22s CPU      0.28s WALL (       9 calls)
     PAW_pot      :      3.34s CPU      3.62s WALL (       9 calls)
     mix_rho      :      0.01s CPU      0.01s WALL (       9 calls)

     Called by c_bands:
     init_us_2    :      0.04s CPU      0.04s WALL (     672 calls)
     cegterg      :      1.82s CPU      1.84s WALL (     288 calls)

     Called by *egterg:
     cdiaghg      :      0.11s CPU      0.11s WALL (     962 calls)
     h_psi        :      1.37s CPU      1.38s WALL (    1026 calls)
     s_psi        :      0.06s CPU      0.06s WALL (    1026 calls)
     g_psi        :      0.01s CPU      0.01s WALL (     706 calls)

     Called by h_psi:
     h_psi:calbec :      0.09s CPU      0.09s WALL (    1026 calls)
     vloc_psi     :      1.22s CPU      1.23s WALL (    1026 calls)
                                        0.00s GPU  (    1026 calls)
     add_vuspsi   :      0.06s CPU      0.06s WALL (    1026 calls)

     General routines
     calbec       :      0.18s CPU      0.18s WALL (    1858 calls)
     fft          :      0.07s CPU      0.07s WALL (     265 calls)
     ffts         :      0.00s CPU      0.00s WALL (      36 calls)
     fftw         :      1.33s CPU      1.34s WALL (   20926 calls)
     interpolate  :      0.01s CPU      0.01s WALL (      18 calls)

     Parallel routines

     PWSCF        :      7.14s CPU      7.53s WALL


   This run was terminated on:  15:54:38  15Mar2026            

=------------------------------------------------------------------------------=
   JOB DONE.
=------------------------------------------------------------------------------=
