
     Program PWSCF v.7.5 starts on 15Mar2026 at 15:54:39 

     This program is part of the open-source Quantum ESPRESSO suite
     for quantum simulation of materials; please cite
         "P. Giannozzi et al., J. Phys.:Condens. Matter 21 395502 (2009);
         "P. Giannozzi et al., J. Phys.:Condens. Matter 29 465901 (2017);
         "P. Giannozzi et al., J. Chem. Phys. 152 154105 (2020);
          URL http://www.quantum-espresso.org", 
     in publications or presentations arising from this work. More details at
     http://www.quantum-espresso.org/quote

     Parallel version (MPI), running on     1 processors

     MPI processes distributed on     1 nodes
     3329 MiB available memory on the printing compute node when the environment starts

     Reading input from espresso.pwi
Warning: card &CELL ignored
Warning: card &FCP ignored
Warning: card &RISM ignored

     Current dimensions of program PWSCF are:
     Max number of different atomic species (ntypx) = 10
     Max number of k-points (npk) =  40000
     Max angular momentum in pseudopotentials (lmaxx) =  4
     file Fe.pbe-spn-kjpaw_psl.1.0.0.UPF: wavefunction(s)  3P 3D renormalized
     Message from routine setup:
     using ibrav=0 with symmetry is DISCOURAGED, use correct ibrav instead

     Subspace diagonalization in iterative solution of the eigenvalue problem:
     a serial algorithm will be used


     G-vector sticks info
     --------------------
     sticks:   dense  smooth     PW     G-vecs:    dense   smooth      PW
     Sum         563     283    129                 8589     3055     887

     Using Slab Decomposition



     bravais-lattice index     =            0
     lattice parameter (alat)  =       4.8848  a.u.
     unit-cell volume          =      89.7248 (a.u.)^3
     number of atoms/cell      =            1
     number of atomic types    =            1
     number of electrons       =        16.00
     number of Kohn-Sham states=           12
     kinetic-energy cutoff     =      40.0000  Ry
     charge density cutoff     =     320.0000  Ry
     scf convergence threshold =      1.0E-06
     mixing beta               =       0.7000
     number of iterations used =            8  plain     mixing
     Exchange-correlation= SLA  PW   PBX  PBC
                           (   1   4   3   4   0   0   0)

     celldm(1)=   4.884777  celldm(2)=   0.000000  celldm(3)=   0.000000
     celldm(4)=   0.000000  celldm(5)=   0.000000  celldm(6)=   0.000000

     crystal axes: (cart. coord. in units of alat)
               a(1) = (  -0.577350   0.577350   0.577350 )  
               a(2) = (   0.577350  -0.577350   0.577350 )  
               a(3) = (   0.577350   0.577350  -0.577350 )  

     reciprocal axes: (cart. coord. in units 2 pi/alat)
               b(1) = (  0.000000  0.866025  0.866025 )  
               b(2) = (  0.866025  0.000000  0.866025 )  
               b(3) = (  0.866025  0.866025  0.000000 )  


     PseudoPot. # 1 for Fe read from file:
     /home/kenobi/Workspaces/PHYS400/pseudopotentials/Fe.pbe-spn-kjpaw_psl.1.0.0.UPF
     MD5 check sum: fc81f059e5c5069939230b1155715ae8
     Pseudo is Projector augmented-wave + core cor, Zval = 16.0
     Generated using &quot;atomic&quot; code by A. Dal Corso  v.6.3
     Shape of augmentation charge: PSQ
     Using radial grid of 1191 points,  6 beta functions with: 
                l(1) =   0
                l(2) =   0
                l(3) =   1
                l(4) =   1
                l(5) =   2
                l(6) =   2
     Q(r) pseudized with 0 coefficients 


     atomic species   valence    mass     pseudopotential
     Fe               16.00    55.84500     Fe( 1.00)

     Starting magnetic structure 
     atomic species   magnetization
     Fe              0.144

     48 Sym. Ops., with inversion, found



   Cartesian axes

     site n.     atom                  positions (alat units)
         1        Fe     tau(   1) = (   0.0000000   0.0000000   0.0000000  )

     number of k points=    16  Marzari-Vanderbilt smearing, width (Ry)=  0.0200
                       cart. coord. in units 2pi/alat
        k(    1) = (   0.0000000   0.0000000   0.0000000), wk =   0.0046296
        k(    2) = (   0.1443376   0.1443376   0.0000000), wk =   0.0555556
        k(    3) = (   0.2886751   0.2886751   0.0000000), wk =   0.0555556
        k(    4) = (  -0.4330127  -0.4330127   0.0000000), wk =   0.0277778
        k(    5) = (   0.2886751   0.1443376   0.1443376), wk =   0.1111111
        k(    6) = (   0.4330127   0.2886751   0.1443376), wk =   0.2222222
        k(    7) = (   0.5773503   0.2886751   0.2886751), wk =   0.0370370
        k(    8) = (   0.2886751   0.2886751   0.2886751), wk =   0.0370370
        k(    9) = (   0.4330127   0.4330127   0.2886751), wk =   0.0555556
        k(   10) = (   0.0000000   0.0000000   0.2886751), wk =   0.0277778
        k(   11) = (  -0.0000000  -0.1443376   0.4330127), wk =   0.1111111
        k(   12) = (  -0.8660254  -0.2886751  -0.2886751), wk =   0.0555556
        k(   13) = (  -0.7216878  -0.1443376  -0.2886751), wk =   0.1111111
        k(   14) = (  -0.0000000  -0.0000000   0.5773503), wk =   0.0277778
        k(   15) = (  -0.8660254  -0.1443376  -0.1443376), wk =   0.0555556
        k(   16) = (  -0.8660254  -0.8660254  -0.8660254), wk =   0.0046296

     Dense  grid:     8589 G-vectors     FFT dimensions: (  27,  27,  27)

     Smooth grid:     3055 G-vectors     FFT dimensions: (  20,  20,  20)

     Estimated max dynamical RAM per process >      38.65 MB

     Check: negative core charge=   -0.000009
     Generating pointlists ...
     new r_m :   0.4125 (alat units)  2.0150 (a.u.) for type    1

     Initial potential from superposition of free atoms

     starting charge      15.9996, renormalised to      16.0000
     Starting wfcs are   10 randomized atomic wfcs +    2 random wfcs
     Checking if some PAW data can be deallocated... 

     total cpu time spent up to now is        1.0 secs

     Self-consistent Calculation

     iteration #  1     ecut=    40.00 Ry     beta= 0.70
     Davidson diagonalization with overlap
     ethr =  1.00E-02,  avg # of iterations =  4.7

     Threshold (ethr) on eigenvalues was too large:
     Diagonalizing with lowered threshold

     Davidson diagonalization with overlap
     ethr =  2.64E-04,  avg # of iterations =  1.8

     negative rho (up, down):  0.000E+00 1.258E-04

     total cpu time spent up to now is        2.0 secs

     total energy              =    -329.01940859 Ry
     estimated scf accuracy    <       0.04435467 Ry

     total magnetization       =     2.41 Bohr mag/cell
     absolute magnetization    =     2.42 Bohr mag/cell

     iteration #  2     ecut=    40.00 Ry     beta= 0.70
     Davidson diagonalization with overlap
     ethr =  2.77E-04,  avg # of iterations =  2.7

     negative rho (up, down):  0.000E+00 1.516E-04

     total cpu time spent up to now is        2.8 secs

     total energy              =    -329.01791076 Ry
     estimated scf accuracy    <       0.14416164 Ry

     total magnetization       =     2.54 Bohr mag/cell
     absolute magnetization    =     2.62 Bohr mag/cell

     iteration #  3     ecut=    40.00 Ry     beta= 0.70
     Davidson diagonalization with overlap
     ethr =  2.77E-04,  avg # of iterations =  2.3

     negative rho (up, down):  0.000E+00 4.762E-04

     total cpu time spent up to now is        3.5 secs

     total energy              =    -329.04378037 Ry
     estimated scf accuracy    <       0.00149617 Ry

     total magnetization       =     2.43 Bohr mag/cell
     absolute magnetization    =     2.54 Bohr mag/cell

     iteration #  4     ecut=    40.00 Ry     beta= 0.70
     Davidson diagonalization with overlap
     ethr =  9.35E-06,  avg # of iterations =  2.7

     negative rho (up, down):  0.000E+00 5.361E-04

     total cpu time spent up to now is        4.3 secs

     total energy              =    -329.04470931 Ry
     estimated scf accuracy    <       0.00027782 Ry

     total magnetization       =     2.48 Bohr mag/cell
     absolute magnetization    =     2.65 Bohr mag/cell

     iteration #  5     ecut=    40.00 Ry     beta= 0.70
     Davidson diagonalization with overlap
     ethr =  1.74E-06,  avg # of iterations =  2.5

     negative rho (up, down):  0.000E+00 5.648E-04

     total cpu time spent up to now is        5.0 secs

     total energy              =    -329.04479976 Ry
     estimated scf accuracy    <       0.00018481 Ry

     total magnetization       =     2.53 Bohr mag/cell
     absolute magnetization    =     2.72 Bohr mag/cell

     iteration #  6     ecut=    40.00 Ry     beta= 0.70
     Davidson diagonalization with overlap
     ethr =  1.16E-06,  avg # of iterations =  2.0

     negative rho (up, down):  0.000E+00 5.794E-04

     total cpu time spent up to now is        5.7 secs

     total energy              =    -329.04509571 Ry
     estimated scf accuracy    <       0.00001337 Ry

     total magnetization       =     2.62 Bohr mag/cell
     absolute magnetization    =     2.81 Bohr mag/cell

     iteration #  7     ecut=    40.00 Ry     beta= 0.70
     Davidson diagonalization with overlap
     ethr =  8.36E-08,  avg # of iterations =  2.0

     negative rho (up, down):  0.000E+00 5.907E-04

     total cpu time spent up to now is        6.5 secs

     total energy              =    -329.04511293 Ry
     estimated scf accuracy    <       0.00000174 Ry

     total magnetization       =     2.64 Bohr mag/cell
     absolute magnetization    =     2.83 Bohr mag/cell

     iteration #  8     ecut=    40.00 Ry     beta= 0.70
     Davidson diagonalization with overlap
     ethr =  1.09E-08,  avg # of iterations =  2.0

     negative rho (up, down):  0.000E+00 5.887E-04

     Magnetic moment per site  (integrated on atomic sphere of radius R)
     atom   1 (R=0.413)  charge= 14.5117  magn=  2.7404

     total cpu time spent up to now is        7.2 secs

     End of self-consistent calculation

 ------ SPIN UP ------------


          k = 0.0000 0.0000 0.0000 (   381 PWs)   bands (ev):

   -73.4175 -39.1845 -39.1845 -39.1845   7.4201  12.9520  12.9520  12.9520
    13.8615  13.8615  38.1358  38.1358

          k = 0.1443 0.1443 0.0000 (   380 PWs)   bands (ev):

   -73.4067 -39.2318 -39.1988 -39.1693   8.4042  12.7739  12.9026  13.3860
    13.7393  13.9539  32.8093  36.1560

          k = 0.2887 0.2887 0.0000 (   388 PWs)   bands (ev):

   -73.3879 -39.3549 -39.2688 -39.1651  10.4307  12.3015  13.2166  13.8459
    14.0534  14.3399  25.4965  33.0516

          k =-0.4330-0.4330 0.0000 (   384 PWs)   bands (ev):

   -73.3771 -39.4089 -39.2804 -39.1412  10.8639  12.0890  14.0311  14.0943
    14.9130  15.5122  21.0329  31.8592

          k = 0.2887 0.1443 0.1443 (   381 PWs)   bands (ev):

   -73.3919 -39.3142 -39.2217 -39.1772  10.0671  12.5043  12.5627  13.6994
    14.1222  14.3819  29.2537  29.9481

          k = 0.4330 0.2887 0.1443 (   385 PWs)   bands (ev):

   -73.3772 -39.3843 -39.2674 -39.1812  11.2587  12.1963  13.0362  13.9192
    14.2735  16.5794  22.8803  27.6520

          k = 0.5774 0.2887 0.2887 (   378 PWs)   bands (ev):

   -73.3709 -39.3113 -39.3113 -39.1971  11.9014  12.3854  12.3854  14.1373
    14.1373  20.8873  20.8873  22.9530

          k = 0.2887 0.2887 0.2887 (   378 PWs)   bands (ev):

   -73.3794 -39.3776 -39.1890 -39.1890  11.7459  12.1648  12.1648  14.1265
    14.1265  16.4228  26.6868  26.6868

          k = 0.4330 0.4330 0.2887 (   376 PWs)   bands (ev):

   -73.3732 -39.3148 -39.2733 -39.1900  11.8770  12.0293  12.7224  14.1934
    14.2417  19.6913  21.6850  25.7762

          k = 0.0000 0.0000 0.2887 (   390 PWs)   bands (ev):

   -73.3991 -39.2463 -39.2463 -39.2393   9.2958  12.9703  12.9703  13.1140
    13.3346  14.2575  32.9033  33.6007

          k =-0.0000-0.1443 0.4330 (   383 PWs)   bands (ev):

   -73.3786 -39.3374 -39.2602 -39.2036  11.0383  12.4764  12.8248  13.5724
    14.3509  15.1032  26.1972  30.4646

          k =-0.8660-0.2887-0.2887 (   380 PWs)   bands (ev):

   -73.3685 -39.3765 -39.2702 -39.1954  11.3327  12.6504  12.6846  13.6762
    14.9441  17.8025  21.2611  29.1461

          k =-0.7217-0.1443-0.2887 (   392 PWs)   bands (ev):

   -73.3670 -39.3736 -39.3216 -39.2516  11.7826  11.8623  12.8348  13.8457
    14.4980  18.3841  23.8207  24.4848

          k =-0.0000-0.0000 0.5774 (   394 PWs)   bands (ev):

   -73.3640 -39.3455 -39.3157 -39.3157  11.4842  11.7101  13.7203  13.7203
    14.3374  17.3277  26.9034  26.9034

          k =-0.8660-0.1443-0.1443 (   390 PWs)   bands (ev):

   -73.3556 -39.3616 -39.3340 -39.3169  11.3403  11.4010  13.8880  14.1457
    14.8383  21.1928  22.3030  25.4088

          k =-0.8660-0.8660-0.8660 (   370 PWs)   bands (ev):

   -73.3450 -39.3118 -39.3118 -39.3118  11.0712  11.0712  14.9199  14.9199
    14.9199  23.7602  23.7602  23.7602

 ------ SPIN DOWN ----------


          k = 0.0000 0.0000 0.0000 (   381 PWs)   bands (ev):

   -70.2024 -36.0313 -36.0313 -36.0313   7.5076  15.4362  15.4362  15.4362
    16.9340  16.9340  37.7660  37.7660

          k = 0.1443 0.1443 0.0000 (   380 PWs)   bands (ev):

   -70.1907 -36.0876 -36.0484 -36.0161   8.5062  15.1862  15.3077  15.9364
    16.7320  17.0309  33.1901  36.0920

          k = 0.2887 0.2887 0.0000 (   388 PWs)   bands (ev):

   -70.1695 -36.2273 -36.1236 -36.0118  10.9790  14.5926  14.8853  16.7537
    17.0701  17.1671  26.4446  33.0194

          k =-0.4330-0.4330 0.0000 (   384 PWs)   bands (ev):

   -70.1579 -36.2897 -36.1372 -35.9888  12.3733  14.3259  15.5104  16.9724
    17.2398  17.7727  22.6753  31.7773

          k = 0.2887 0.1443 0.1443 (   381 PWs)   bands (ev):

   -70.1744 -36.1811 -36.0747 -36.0262  10.3002  14.7759  14.8295  16.6107
    16.9262  17.2494  29.8717  30.5617

          k = 0.4330 0.2887 0.1443 (   385 PWs)   bands (ev):

   -70.1580 -36.2606 -36.1265 -36.0310  12.5716  14.3391  14.6395  16.8298
    17.2706  18.5964  24.0535  28.2802

          k = 0.5774 0.2887 0.2887 (   378 PWs)   bands (ev):

   -70.1515 -36.1815 -36.1815 -36.0481  13.8603  14.1314  14.1314  17.0826
    17.0826  22.1233  22.1233  23.9937

          k = 0.2887 0.2887 0.2887 (   378 PWs)   bands (ev):

   -70.1611 -36.2505 -36.0440 -36.0440  12.4316  14.2364  14.2364  17.2113
    17.2113  18.6385  27.4053  27.4053

          k = 0.4330 0.4330 0.2887 (   376 PWs)   bands (ev):

   -70.1546 -36.1872 -36.1354 -36.0456  13.5608  14.0268  14.2676  17.2780
    17.3928  20.9833  22.9652  26.5114

          k = 0.0000 0.0000 0.2887 (   390 PWs)   bands (ev):

   -70.1817 -36.0985 -36.0985 -36.0965   9.4375  15.3851  15.3851  15.8970
    15.8988  17.3505  33.1040  34.2338

          k =-0.0000-0.1443 0.4330 (   383 PWs)   bands (ev):

   -70.1596 -36.2082 -36.1180 -36.0567  11.7152  14.6813  15.1661  16.1652
    17.0626  17.6939  27.0775  31.1659

          k =-0.8660-0.2887-0.2887 (   380 PWs)   bands (ev):

   -70.1489 -36.2548 -36.1305 -36.0485  13.0211  14.3907  14.9829  16.3753
    17.7926  19.1277  22.7363  29.7822

          k =-0.7217-0.1443-0.2887 (   392 PWs)   bands (ev):

   -70.1462 -36.2470 -36.1872 -36.1064  13.3554  13.9553  15.0837  16.4852
    17.2607  19.9004  24.8165  25.3132

          k =-0.0000-0.0000 0.5774 (   394 PWs)   bands (ev):

   -70.1430 -36.2146 -36.1790 -36.1790  12.9245  13.9751  16.1991  16.1991
    17.0665  18.8827  27.5332  27.5332

          k =-0.8660-0.1443-0.1443 (   390 PWs)   bands (ev):

   -70.1338 -36.2341 -36.2003 -36.1809  13.3735  13.3920  16.4281  16.6786
    17.6677  22.0052  23.1818  25.9085

          k =-0.8660-0.8660-0.8660 (   370 PWs)   bands (ev):

   -70.1233 -36.1817 -36.1817 -36.1817  13.1106  13.1106  17.7380  17.7380
    17.7380  24.0231  24.0231  24.0231

     the Fermi energy is    15.1775 ev

!    total energy              =    -329.04512130 Ry
     total all-electron energy =     -2545.341654 Ry
     estimated scf accuracy    <       0.00000065 Ry
     smearing contrib. (-TS)   =       0.00074794 Ry
     internal energy E=F+TS    =    -329.04586924 Ry

     The total energy is F=E-TS. E is the sum of the following terms:
     one-electron contribution =    -123.46730093 Ry
     hartree contribution      =      70.03062935 Ry
     xc contribution           =     -27.69277126 Ry
     ewald contribution        =    -165.17175291 Ry
     one-center paw contrib.   =     -82.74467349 Ry

     total magnetization       =     2.65 Bohr mag/cell
     absolute magnetization    =     2.85 Bohr mag/cell

     convergence has been achieved in   8 iterations

     negative rho (up, down):  0.000E+00 5.887E-04

     Forces acting on atoms (cartesian axes, Ry/au):

     atom    1 type  1   force =     0.00000000    0.00000000    0.00000000

     Total force =     0.000000     Total SCF correction =     0.000000


     Computing stress (Cartesian axis) and pressure


     negative rho (up, down):  0.000E+00 5.887E-04
          total   stress  (Ry/bohr**3)                   (kbar)     P=    -2433.45
  -0.01654225   0.00000000  -0.00000000        -2433.45        0.00       -0.00
  -0.00000000  -0.01654225  -0.00000000           -0.00    -2433.45       -0.00
  -0.00000000  -0.00000000  -0.01654225           -0.00       -0.00    -2433.45


     Writing all to output data dir ./pwscf.save/ :
     XML data file, charge density, pseudopotentials, collected wavefunctions

     init_run     :      0.77s CPU      0.83s WALL (       1 calls)
     electrons    :      5.92s CPU      6.26s WALL (       1 calls)
     forces       :      0.08s CPU      0.08s WALL (       1 calls)
     stress       :      0.32s CPU      0.33s WALL (       1 calls)

     Called by init_run:
     wfcinit      :      0.08s CPU      0.08s WALL (       1 calls)
     potinit      :      0.40s CPU      0.45s WALL (       1 calls)
     hinit0       :      0.26s CPU      0.26s WALL (       1 calls)

     Called by electrons:
     c_bands      :      1.97s CPU      1.99s WALL (       9 calls)
     sum_band     :      0.65s CPU      0.66s WALL (       9 calls)
     v_of_rho     :      0.15s CPU      0.15s WALL (       9 calls)
     newd         :      0.21s CPU      0.28s WALL (       9 calls)
     PAW_pot      :      3.33s CPU      3.62s WALL (       9 calls)
     mix_rho      :      0.01s CPU      0.01s WALL (       9 calls)

     Called by c_bands:
     init_us_2    :      0.05s CPU      0.05s WALL (     672 calls)
     cegterg      :      1.90s CPU      1.92s WALL (     288 calls)

     Called by *egterg:
     cdiaghg      :      0.11s CPU      0.11s WALL (     981 calls)
     h_psi        :      1.42s CPU      1.44s WALL (    1045 calls)
     s_psi        :      0.07s CPU      0.07s WALL (    1045 calls)
     g_psi        :      0.01s CPU      0.01s WALL (     725 calls)

     Called by h_psi:
     h_psi:calbec :      0.09s CPU      0.09s WALL (    1045 calls)
     vloc_psi     :      1.26s CPU      1.27s WALL (    1045 calls)
                                        0.00s GPU  (    1045 calls)
     add_vuspsi   :      0.07s CPU      0.07s WALL (    1045 calls)

     General routines
     calbec       :      0.19s CPU      0.19s WALL (    1877 calls)
     fft          :      0.07s CPU      0.07s WALL (     265 calls)
     ffts         :      0.00s CPU      0.00s WALL (      36 calls)
     fftw         :      1.39s CPU      1.40s WALL (   21176 calls)
     interpolate  :      0.01s CPU      0.01s WALL (      18 calls)

     Parallel routines

     PWSCF        :      7.22s CPU      7.63s WALL


   This run was terminated on:  15:54:46  15Mar2026            

=------------------------------------------------------------------------------=
   JOB DONE.
=------------------------------------------------------------------------------=
