
     Program PWSCF v.7.5 starts on 15Mar2026 at 16: 9:42 

     This program is part of the open-source Quantum ESPRESSO suite
     for quantum simulation of materials; please cite
         "P. Giannozzi et al., J. Phys.:Condens. Matter 21 395502 (2009);
         "P. Giannozzi et al., J. Phys.:Condens. Matter 29 465901 (2017);
         "P. Giannozzi et al., J. Chem. Phys. 152 154105 (2020);
          URL http://www.quantum-espresso.org", 
     in publications or presentations arising from this work. More details at
     http://www.quantum-espresso.org/quote

     Parallel version (MPI), running on     1 processors

     MPI processes distributed on     1 nodes
     1466 MiB available memory on the printing compute node when the environment starts

     Reading input from espresso.pwi
Warning: card &CELL ignored
Warning: card &FCP ignored
Warning: card &RISM ignored

     Current dimensions of program PWSCF are:
     Max number of different atomic species (ntypx) = 10
     Max number of k-points (npk) =  40000
     Max angular momentum in pseudopotentials (lmaxx) =  4
     file Al.pbe-n-kjpaw_psl.1.0.0.UPF: wavefunction(s)  3S 3P renormalized
     Message from routine setup:
     using ibrav=0 with symmetry is DISCOURAGED, use correct ibrav instead

     Subspace diagonalization in iterative solution of the eigenvalue problem:
     a serial algorithm will be used


     G-vector sticks info
     --------------------
     sticks:   dense  smooth     PW     G-vecs:    dense   smooth      PW
     Sum         595     301     97                 9577     3383     645

     Using Slab Decomposition



     bravais-lattice index     =            0
     lattice parameter (alat)  =       5.1953  a.u.
     unit-cell volume          =      99.1552 (a.u.)^3
     number of atoms/cell      =            1
     number of atomic types    =            1
     number of electrons       =         3.00
     number of Kohn-Sham states=            6
     kinetic-energy cutoff     =      40.0000  Ry
     charge density cutoff     =     320.0000  Ry
     scf convergence threshold =      1.0E-06
     mixing beta               =       0.7000
     number of iterations used =            8  plain     mixing
     Exchange-correlation= SLA  PW   PBX  PBC
                           (   1   4   3   4   0   0   0)

     celldm(1)=   5.195294  celldm(2)=   0.000000  celldm(3)=   0.000000
     celldm(4)=   0.000000  celldm(5)=   0.000000  celldm(6)=   0.000000

     crystal axes: (cart. coord. in units of alat)
               a(1) = (   0.000000   0.707107   0.707107 )  
               a(2) = (   0.707107   0.000000   0.707107 )  
               a(3) = (   0.707107   0.707107   0.000000 )  

     reciprocal axes: (cart. coord. in units 2 pi/alat)
               b(1) = ( -0.707107  0.707107  0.707107 )  
               b(2) = (  0.707107 -0.707107  0.707107 )  
               b(3) = (  0.707107  0.707107 -0.707107 )  


     PseudoPot. # 1 for Al read from file:
     /home/kenobi/Workspaces/PHYS400/pseudopotentials/Al.pbe-n-kjpaw_psl.1.0.0.UPF
     MD5 check sum: 502b6b27b9c6270cab5dd1084b96fa6d
     Pseudo is Projector augmented-wave + core cor, Zval =  3.0
     Generated using &quot;atomic&quot; code by A. Dal Corso  v.6.3
     Shape of augmentation charge: PSQ
     Using radial grid of 1135 points,  6 beta functions with: 
                l(1) =   0
                l(2) =   0
                l(3) =   1
                l(4) =   1
                l(5) =   2
                l(6) =   2
     Q(r) pseudized with 0 coefficients 


     atomic species   valence    mass     pseudopotential
     Al                3.00    26.98154     Al( 1.00)

     48 Sym. Ops., with inversion, found



   Cartesian axes

     site n.     atom                  positions (alat units)
         1        Al     tau(   1) = (   0.0000000   0.0000000   0.0000000  )

     number of k points=    16  Marzari-Vanderbilt smearing, width (Ry)=  0.0200
                       cart. coord. in units 2pi/alat
        k(    1) = (   0.0000000   0.0000000   0.0000000), wk =   0.0092593
        k(    2) = (   0.1178511   0.1178511  -0.1178511), wk =   0.0740741
        k(    3) = (   0.2357023   0.2357023  -0.2357023), wk =   0.0740741
        k(    4) = (  -0.3535534  -0.3535534   0.3535534), wk =   0.0370370
        k(    5) = (   0.2357023   0.0000000   0.0000000), wk =   0.0555556
        k(    6) = (   0.3535534   0.1178511  -0.1178511), wk =   0.2222222
        k(    7) = (  -0.2357023  -0.4714045   0.4714045), wk =   0.2222222
        k(    8) = (  -0.1178511  -0.3535534   0.3535534), wk =   0.2222222
        k(    9) = (   0.0000000  -0.2357023   0.2357023), wk =   0.1111111
        k(   10) = (   0.4714045   0.0000000   0.0000000), wk =   0.0555556
        k(   11) = (  -0.1178511  -0.5892557   0.5892557), wk =   0.2222222
        k(   12) = (  -0.0000000  -0.4714045   0.4714045), wk =   0.1111111
        k(   13) = (  -0.7071068   0.0000000   0.0000000), wk =   0.0277778
        k(   14) = (  -0.2357023  -0.4714045   0.7071068), wk =   0.2222222
        k(   15) = (  -0.1178511  -0.3535534   0.5892557), wk =   0.2222222
        k(   16) = (  -0.7071068   0.2357023   0.0000000), wk =   0.1111111

     Dense  grid:     9577 G-vectors     FFT dimensions: (  30,  30,  30)

     Smooth grid:     3383 G-vectors     FFT dimensions: (  24,  24,  24)

     Estimated max dynamical RAM per process >      37.37 MB

     Initial potential from superposition of free atoms

     starting charge       2.9977, renormalised to       3.0000
     Starting wfcs are    4 randomized atomic wfcs +    2 random wfcs
     Checking if some PAW data can be deallocated... 

     total cpu time spent up to now is        0.6 secs

     Self-consistent Calculation

     iteration #  1     ecut=    40.00 Ry     beta= 0.70
     Davidson diagonalization with overlap
     ethr =  1.00E-02,  avg # of iterations =  6.3

     Threshold (ethr) on eigenvalues was too large:
     Diagonalizing with lowered threshold

     Davidson diagonalization with overlap
     ethr =  1.73E-04,  avg # of iterations =  2.8

     total cpu time spent up to now is        1.1 secs

     total energy              =     -39.50325397 Ry
     estimated scf accuracy    <       0.00507441 Ry

     iteration #  2     ecut=    40.00 Ry     beta= 0.70
     Davidson diagonalization with overlap
     ethr =  1.69E-04,  avg # of iterations =  1.1

     total cpu time spent up to now is        1.4 secs

     total energy              =     -39.50319260 Ry
     estimated scf accuracy    <       0.00039006 Ry

     iteration #  3     ecut=    40.00 Ry     beta= 0.70
     Davidson diagonalization with overlap
     ethr =  1.30E-05,  avg # of iterations =  3.2

     total cpu time spent up to now is        1.7 secs

     End of self-consistent calculation

          k = 0.0000 0.0000 0.0000 (   411 PWs)   bands (ev):

    -2.8093  22.4317  22.4317  24.8562  24.8562  24.8562

          k = 0.1179 0.1179-0.1179 (   414 PWs)   bands (ev):

    -1.9959  16.2549  21.3482  21.3483  24.9629  26.6726

          k = 0.2357 0.2357-0.2357 (   425 PWs)   bands (ev):

     0.4130   9.6927  20.7675  20.7675  23.5988  23.5991

          k =-0.3536-0.3536 0.3536 (   410 PWs)   bands (ev):

     4.0885   4.6119  21.1638  21.1639  21.8738  21.8738

          k = 0.2357 0.0000 0.0000 (   423 PWs)   bands (ev):

    -1.7259  18.6784  18.9163  18.9163  22.2672  23.1154

          k = 0.3536 0.1179-0.1179 (   424 PWs)   bands (ev):

     0.1474  12.3515  17.8123  18.3368  19.6632  24.9966

          k =-0.2357-0.4714 0.4714 (   428 PWs)   bands (ev):

     3.5422   6.6716  15.8445  18.0561  19.9866  26.3657

          k =-0.1179-0.3536 0.3536 (   424 PWs)   bands (ev):

     2.2530   8.4014  14.7025  19.6675  21.7538  25.1856

          k = 0.0000-0.2357 0.2357 (   417 PWs)   bands (ev):

    -0.6518  13.8620  15.6506  22.6511  24.5515  24.7839

          k = 0.4714 0.0000 0.0000 (   432 PWs)   bands (ev):

     1.4661  13.8255  15.5133  16.2311  16.2311  20.3999

          k =-0.1179-0.5893 0.5893 (   423 PWs)   bands (ev):

     4.2970  10.1158  10.9326  16.0126  17.5123  23.3156

          k =-0.0000-0.4714 0.4714 (   431 PWs)   bands (ev):

     5.5775   7.9168   9.7491  17.1540  19.0036  29.3630

          k =-0.7071 0.0000 0.0000 (   444 PWs)   bands (ev):

     5.9505   7.5110  14.4375  15.3347  15.3347  19.4036

          k =-0.2357-0.4714 0.7071 (   417 PWs)   bands (ev):

     2.5118  10.8824  12.6384  15.1201  22.8302  25.0703

          k =-0.1179-0.3536 0.5893 (   420 PWs)   bands (ev):

     6.0780   6.6220  12.2121  13.3877  24.3906  24.6899

          k =-0.7071 0.2357 0.0000 (   424 PWs)   bands (ev):

     6.9321   8.4594   9.8897  12.0499  21.8880  24.3102

     the Fermi energy is     9.6439 ev

!    total energy              =     -39.50319705 Ry
     total all-electron energy =      -485.645977 Ry
     estimated scf accuracy    <       0.00000035 Ry
     smearing contrib. (-TS)   =      -0.00064988 Ry
     internal energy E=F+TS    =     -39.50254717 Ry

     The total energy is F=E-TS. E is the sum of the following terms:
     one-electron contribution =       3.45408942 Ry
     hartree contribution      =       0.00670529 Ry
     xc contribution           =      -2.65554308 Ry
     ewald contribution        =      -5.61621418 Ry
     one-center paw contrib.   =     -34.69158461 Ry

     convergence has been achieved in   3 iterations

     Forces acting on atoms (cartesian axes, Ry/au):

     atom    1 type  1   force =     0.00000000    0.00000000    0.00000000

     Total force =     0.000000     Total SCF correction =     0.000000


     Computing stress (Cartesian axis) and pressure

          total   stress  (Ry/bohr**3)                   (kbar)     P=      121.37
   0.00082503   0.00000000  -0.00000000          121.37        0.00       -0.00
  -0.00000000   0.00082503  -0.00000000           -0.00      121.37       -0.00
  -0.00000000   0.00000000   0.00082503           -0.00        0.00      121.37


     Writing all to output data dir ./pwscf.save/ :
     XML data file, charge density, pseudopotentials, collected wavefunctions

     init_run     :      0.49s CPU      0.52s WALL (       1 calls)
     electrons    :      1.02s CPU      1.03s WALL (       1 calls)
     forces       :      0.05s CPU      0.05s WALL (       1 calls)
     stress       :      0.28s CPU      0.28s WALL (       1 calls)

     Called by init_run:
     wfcinit      :      0.02s CPU      0.02s WALL (       1 calls)
     potinit      :      0.19s CPU      0.21s WALL (       1 calls)
     hinit0       :      0.24s CPU      0.24s WALL (       1 calls)

     Called by electrons:
     c_bands      :      0.29s CPU      0.29s WALL (       4 calls)
     sum_band     :      0.14s CPU      0.15s WALL (       4 calls)
     v_of_rho     :      0.03s CPU      0.04s WALL (       4 calls)
     newd         :      0.10s CPU      0.10s WALL (       4 calls)
     PAW_pot      :      0.66s CPU      0.68s WALL (       4 calls)
     mix_rho      :      0.00s CPU      0.00s WALL (       4 calls)

     Called by c_bands:
     init_us_2    :      0.01s CPU      0.01s WALL (     176 calls)
     cegterg      :      0.27s CPU      0.27s WALL (      64 calls)

     Called by *egterg:
     cdiaghg      :      0.01s CPU      0.01s WALL (     263 calls)
     h_psi        :      0.24s CPU      0.24s WALL (     295 calls)
     s_psi        :      0.01s CPU      0.01s WALL (     295 calls)
     g_psi        :      0.00s CPU      0.00s WALL (     215 calls)

     Called by h_psi:
     h_psi:calbec :      0.01s CPU      0.01s WALL (     295 calls)
     vloc_psi     :      0.21s CPU      0.22s WALL (     295 calls)
                                        0.00s GPU  (     295 calls)
     add_vuspsi   :      0.01s CPU      0.01s WALL (     295 calls)

     General routines
     calbec       :      0.04s CPU      0.04s WALL (     631 calls)
     fft          :      0.02s CPU      0.02s WALL (      76 calls)
     ffts         :      0.00s CPU      0.00s WALL (       8 calls)
     fftw         :      0.22s CPU      0.22s WALL (    2786 calls)
     interpolate  :      0.00s CPU      0.00s WALL (       4 calls)

     Parallel routines

     PWSCF        :      1.96s CPU      2.01s WALL


   This run was terminated on:  16: 9:44  15Mar2026            

=------------------------------------------------------------------------------=
   JOB DONE.
=------------------------------------------------------------------------------=
