
     Program PWSCF v.7.5 starts on 15Mar2026 at 15:52: 9 

     This program is part of the open-source Quantum ESPRESSO suite
     for quantum simulation of materials; please cite
         "P. Giannozzi et al., J. Phys.:Condens. Matter 21 395502 (2009);
         "P. Giannozzi et al., J. Phys.:Condens. Matter 29 465901 (2017);
         "P. Giannozzi et al., J. Chem. Phys. 152 154105 (2020);
          URL http://www.quantum-espresso.org", 
     in publications or presentations arising from this work. More details at
     http://www.quantum-espresso.org/quote

     Parallel version (MPI), running on     1 processors

     MPI processes distributed on     1 nodes
     3456 MiB available memory on the printing compute node when the environment starts

     Reading input from espresso.pwi
Warning: card &CELL ignored
Warning: card &FCP ignored
Warning: card &RISM ignored

     Current dimensions of program PWSCF are:
     Max number of different atomic species (ntypx) = 10
     Max number of k-points (npk) =  40000
     Max angular momentum in pseudopotentials (lmaxx) =  4
     Message from routine setup:
     using ibrav=0 with symmetry is DISCOURAGED, use correct ibrav instead

     Subspace diagonalization in iterative solution of the eigenvalue problem:
     a serial algorithm will be used


     G-vector sticks info
     --------------------
     sticks:   dense  smooth     PW     G-vecs:    dense   smooth      PW
     Sum         673     337    121                11575     4015     821

     Using Slab Decomposition



     bravais-lattice index     =            0
     lattice parameter (alat)  =       5.5245  a.u.
     unit-cell volume          =     119.2269 (a.u.)^3
     number of atoms/cell      =            1
     number of atomic types    =            1
     number of electrons       =        11.00
     number of Kohn-Sham states=           10
     kinetic-energy cutoff     =      40.0000  Ry
     charge density cutoff     =     320.0000  Ry
     scf convergence threshold =      1.0E-06
     mixing beta               =       0.7000
     number of iterations used =            8  plain     mixing
     Exchange-correlation= LDA
                           (   1   1   0   0   0   0   0)

     celldm(1)=   5.524543  celldm(2)=   0.000000  celldm(3)=   0.000000
     celldm(4)=   0.000000  celldm(5)=   0.000000  celldm(6)=   0.000000

     crystal axes: (cart. coord. in units of alat)
               a(1) = (   0.000000   0.707107   0.707107 )  
               a(2) = (   0.707107   0.000000   0.707107 )  
               a(3) = (   0.707107   0.707107   0.000000 )  

     reciprocal axes: (cart. coord. in units 2 pi/alat)
               b(1) = ( -0.707107  0.707107  0.707107 )  
               b(2) = (  0.707107 -0.707107  0.707107 )  
               b(3) = (  0.707107  0.707107 -0.707107 )  


     PseudoPot. # 1 for Au read from file:
     /home/kenobi/Workspaces/PHYS400/pseudopotentials/Au.pz-rrkjus_aewfc.UPF
     MD5 check sum: a6a73ca633fd0b71782ee3cea1e65e2b
     Pseudo is Ultrasoft, Zval = 11.0
     Generated using "atomic" code by A. Dal Corso  (Quantum ESPRESSO distribution)
     Using radial grid of 1279 points,  3 beta functions with: 
                l(1) =   1
                l(2) =   2
                l(3) =   2
     Q(r) pseudized with 0 coefficients 


     atomic species   valence    mass     pseudopotential
     Au               11.00   196.96657     Au( 1.00)

     48 Sym. Ops., with inversion, found



   Cartesian axes

     site n.     atom                  positions (alat units)
         1        Au     tau(   1) = (   0.0000000   0.0000000   0.0000000  )

     number of k points=    16  Marzari-Vanderbilt smearing, width (Ry)=  0.0200
                       cart. coord. in units 2pi/alat
        k(    1) = (   0.0000000   0.0000000   0.0000000), wk =   0.0092593
        k(    2) = (   0.1178511   0.1178511  -0.1178511), wk =   0.0740741
        k(    3) = (   0.2357023   0.2357023  -0.2357023), wk =   0.0740741
        k(    4) = (  -0.3535534  -0.3535534   0.3535534), wk =   0.0370370
        k(    5) = (   0.2357023   0.0000000   0.0000000), wk =   0.0555556
        k(    6) = (   0.3535534   0.1178511  -0.1178511), wk =   0.2222222
        k(    7) = (  -0.2357023  -0.4714045   0.4714045), wk =   0.2222222
        k(    8) = (  -0.1178511  -0.3535534   0.3535534), wk =   0.2222222
        k(    9) = (   0.0000000  -0.2357023   0.2357023), wk =   0.1111111
        k(   10) = (   0.4714045   0.0000000   0.0000000), wk =   0.0555556
        k(   11) = (  -0.1178511  -0.5892557   0.5892557), wk =   0.2222222
        k(   12) = (  -0.0000000  -0.4714045   0.4714045), wk =   0.1111111
        k(   13) = (  -0.7071068   0.0000000   0.0000000), wk =   0.0277778
        k(   14) = (  -0.2357023  -0.4714045   0.7071068), wk =   0.2222222
        k(   15) = (  -0.1178511  -0.3535534   0.5892557), wk =   0.2222222
        k(   16) = (  -0.7071068   0.2357023   0.0000000), wk =   0.1111111

     Dense  grid:    11575 G-vectors     FFT dimensions: (  32,  32,  32)

     Smooth grid:     4015 G-vectors     FFT dimensions: (  24,  24,  24)

     Estimated max dynamical RAM per process >      30.21 MB

     Initial potential from superposition of free atoms

     starting charge      10.9999, renormalised to      11.0000
     Starting wfcs are    9 randomized atomic wfcs +    1 random wfcs

     total cpu time spent up to now is        0.4 secs

     Self-consistent Calculation

     iteration #  1     ecut=    40.00 Ry     beta= 0.70
     Davidson diagonalization with overlap
     ethr =  1.00E-02,  avg # of iterations =  5.7

     Threshold (ethr) on eigenvalues was too large:
     Diagonalizing with lowered threshold

     Davidson diagonalization with overlap
     ethr =  6.75E-04,  avg # of iterations =  1.2

     total cpu time spent up to now is        0.7 secs

     total energy              =     -66.81180420 Ry
     estimated scf accuracy    <       0.07585218 Ry

     iteration #  2     ecut=    40.00 Ry     beta= 0.70
     Davidson diagonalization with overlap
     ethr =  6.90E-04,  avg # of iterations =  2.0

     total cpu time spent up to now is        0.9 secs

     total energy              =     -66.83444407 Ry
     estimated scf accuracy    <       0.02516618 Ry

     iteration #  3     ecut=    40.00 Ry     beta= 0.70
     Davidson diagonalization with overlap
     ethr =  2.29E-04,  avg # of iterations =  2.3

     total cpu time spent up to now is        1.0 secs

     total energy              =     -66.83932455 Ry
     estimated scf accuracy    <       0.00002434 Ry

     iteration #  4     ecut=    40.00 Ry     beta= 0.70
     Davidson diagonalization with overlap
     ethr =  2.21E-07,  avg # of iterations =  3.5

     total cpu time spent up to now is        1.2 secs

     total energy              =     -66.83934213 Ry
     estimated scf accuracy    <       0.00000284 Ry

     iteration #  5     ecut=    40.00 Ry     beta= 0.70
     Davidson diagonalization with overlap
     ethr =  2.59E-08,  avg # of iterations =  1.0

     total cpu time spent up to now is        1.3 secs

     End of self-consistent calculation

          k = 0.0000 0.0000 0.0000 (   531 PWs)   bands (ev):

     5.1897  10.2627  10.2627  10.2627  11.6885  11.6885  31.1327  34.3482
    34.3482  34.3482

          k = 0.1179 0.1179-0.1179 (   519 PWs)   bands (ev):

     6.0808  10.0644  10.4981  10.4981  11.6472  11.6472  29.1577  31.9766
    34.6863  34.6863

          k = 0.2357 0.2357-0.2357 (   516 PWs)   bands (ev):

     7.5661  10.4090  10.4090  10.9733  12.2792  12.2792  22.4118  31.0615
    33.5583  33.5583

          k =-0.3536-0.3536 0.3536 (   502 PWs)   bands (ev):

     7.7406  10.2285  10.2285  12.8257  12.8257  13.9628  17.5640  30.2274
    32.2945  32.2945

          k = 0.2357 0.0000 0.0000 (   516 PWs)   bands (ev):

     6.3896   9.7151  10.8091  10.8091  11.1403  11.9468  31.8535  31.8630
    31.8630  32.0577

          k = 0.3536 0.1179-0.1179 (   517 PWs)   bands (ev):

     7.8866   9.5259  10.3944  11.0328  12.2698  12.4582  25.0580  30.1372
    31.1724  32.1712

          k =-0.2357-0.4714 0.4714 (   508 PWs)   bands (ev):

     8.3314   9.8956  10.7787  10.9049  12.8660  15.3962  18.7251  28.4517
    30.0738  31.3544

          k =-0.1179-0.3536 0.3536 (   507 PWs)   bands (ev):

     8.4063  10.0142  10.6878  10.7583  12.1348  14.4067  20.8578  27.2850
    31.6793  32.6380

          k = 0.0000-0.2357 0.2357 (   513 PWs)   bands (ev):

     7.3771   9.7362  10.5247  10.9794  11.1715  12.5609  26.7886  28.5575
    33.8885  34.9568

          k = 0.4714 0.0000 0.0000 (   512 PWs)   bands (ev):

     8.1897   8.7502  11.8686  12.1888  12.1888  12.4911  26.4520  27.2380
    27.2380  31.1871

          k =-0.1179-0.5893 0.5893 (   503 PWs)   bands (ev):

     8.4132   8.8296  11.4674  12.0760  12.9645  15.8487  21.1854  24.2779
    26.6340  32.3074

          k =-0.0000-0.4714 0.4714 (   506 PWs)   bands (ev):

     8.8748   9.6525  10.4689  11.6001  12.4222  17.1064  21.0536  21.6838
    28.9791  32.1045

          k =-0.7071 0.0000 0.0000 (   492 PWs)   bands (ev):

     8.0140   8.3181  12.7788  13.1312  13.1312  15.8998  20.0996  24.9988
    24.9988  31.4792

          k =-0.2357-0.4714 0.7071 (   507 PWs)   bands (ev):

     9.0276   9.2762   9.9792  11.8528  12.1786  14.6170  23.1606  24.8590
    28.1610  35.2828

          k =-0.1179-0.3536 0.5893 (   510 PWs)   bands (ev):

     9.2487   9.3586  10.2139  11.4688  12.7498  17.9004  18.8358  24.3441
    26.3551  34.8479

          k =-0.7071 0.2357 0.0000 (   506 PWs)   bands (ev):

     8.7269   8.9985  10.9644  11.9634  13.1325  18.9075  19.4347  22.9245
    24.1594  35.9985

     the Fermi energy is    14.6871 ev

!    total energy              =     -66.83934231 Ry
     estimated scf accuracy    <       0.00000007 Ry
     smearing contrib. (-TS)   =      -0.00012216 Ry
     internal energy E=F+TS    =     -66.83922014 Ry

     The total energy is F=E-TS. E is the sum of the following terms:
     one-electron contribution =       6.88530573 Ry
     hartree contribution      =       7.68951518 Ry
     xc contribution           =     -10.40718456 Ry
     ewald contribution        =     -71.00685650 Ry

     convergence has been achieved in   5 iterations

     Forces acting on atoms (cartesian axes, Ry/au):

     atom    1 type  1   force =     0.00000000    0.00000000    0.00000000

     Total force =     0.000000     Total SCF correction =     0.000000


     Computing stress (Cartesian axis) and pressure

          total   stress  (Ry/bohr**3)                   (kbar)     P=      -83.21
  -0.00056562   0.00000000  -0.00000000          -83.21        0.00       -0.00
   0.00000000  -0.00056562  -0.00000000            0.00      -83.21       -0.00
  -0.00000000   0.00000000  -0.00056562           -0.00        0.00      -83.21


     Writing all to output data dir ./pwscf.save/ :
     XML data file, charge density, pseudopotentials, collected wavefunctions

     init_run     :      0.28s CPU      0.29s WALL (       1 calls)
     electrons    :      0.95s CPU      0.97s WALL (       1 calls)
     forces       :      0.03s CPU      0.03s WALL (       1 calls)
     stress       :      0.23s CPU      0.23s WALL (       1 calls)

     Called by init_run:
     wfcinit      :      0.04s CPU      0.04s WALL (       1 calls)
     potinit      :      0.02s CPU      0.02s WALL (       1 calls)
     hinit0       :      0.20s CPU      0.20s WALL (       1 calls)

     Called by electrons:
     c_bands      :      0.63s CPU      0.64s WALL (       6 calls)
     sum_band     :      0.21s CPU      0.22s WALL (       6 calls)
     v_of_rho     :      0.01s CPU      0.01s WALL (       6 calls)
     newd         :      0.11s CPU      0.12s WALL (       6 calls)
     mix_rho      :      0.00s CPU      0.00s WALL (       6 calls)

     Called by c_bands:
     init_us_2    :      0.02s CPU      0.02s WALL (     240 calls)
     cegterg      :      0.61s CPU      0.62s WALL (      96 calls)

     Called by *egterg:
     cdiaghg      :      0.03s CPU      0.03s WALL (     332 calls)
     h_psi        :      0.49s CPU      0.50s WALL (     364 calls)
     s_psi        :      0.02s CPU      0.02s WALL (     364 calls)
     g_psi        :      0.00s CPU      0.00s WALL (     252 calls)

     Called by h_psi:
     h_psi:calbec :      0.02s CPU      0.02s WALL (     364 calls)
     vloc_psi     :      0.45s CPU      0.45s WALL (     364 calls)
                                        0.00s GPU  (     364 calls)
     add_vuspsi   :      0.02s CPU      0.02s WALL (     364 calls)

     General routines
     calbec       :      0.06s CPU      0.06s WALL (     732 calls)
     fft          :      0.01s CPU      0.01s WALL (      40 calls)
     ffts         :      0.00s CPU      0.00s WALL (      12 calls)
     fftw         :      0.48s CPU      0.48s WALL (    5974 calls)
     interpolate  :      0.00s CPU      0.00s WALL (       6 calls)

     Parallel routines

     PWSCF        :      1.57s CPU      1.60s WALL


   This run was terminated on:  15:52:10  15Mar2026            

=------------------------------------------------------------------------------=
   JOB DONE.
=------------------------------------------------------------------------------=
