
     Program PWSCF v.7.5 starts on 15Mar2026 at 15:54:14 

     This program is part of the open-source Quantum ESPRESSO suite
     for quantum simulation of materials; please cite
         "P. Giannozzi et al., J. Phys.:Condens. Matter 21 395502 (2009);
         "P. Giannozzi et al., J. Phys.:Condens. Matter 29 465901 (2017);
         "P. Giannozzi et al., J. Chem. Phys. 152 154105 (2020);
          URL http://www.quantum-espresso.org", 
     in publications or presentations arising from this work. More details at
     http://www.quantum-espresso.org/quote

     Parallel version (MPI), running on     1 processors

     MPI processes distributed on     1 nodes
     3359 MiB available memory on the printing compute node when the environment starts

     Reading input from espresso.pwi
Warning: card &CELL ignored
Warning: card &FCP ignored
Warning: card &RISM ignored

     Current dimensions of program PWSCF are:
     Max number of different atomic species (ntypx) = 10
     Max number of k-points (npk) =  40000
     Max angular momentum in pseudopotentials (lmaxx) =  4
     file Fe.pbe-spn-kjpaw_psl.1.0.0.UPF: wavefunction(s)  3P 3D renormalized
     Message from routine setup:
     using ibrav=0 with symmetry is DISCOURAGED, use correct ibrav instead

     Subspace diagonalization in iterative solution of the eigenvalue problem:
     a serial algorithm will be used


     G-vector sticks info
     --------------------
     sticks:   dense  smooth     PW     G-vecs:    dense   smooth      PW
     Sum         535     265    117                 7803     2731     767

     Using Slab Decomposition



     bravais-lattice index     =            0
     lattice parameter (alat)  =       4.6969  a.u.
     unit-cell volume          =      79.7650 (a.u.)^3
     number of atoms/cell      =            1
     number of atomic types    =            1
     number of electrons       =        16.00
     number of Kohn-Sham states=           12
     kinetic-energy cutoff     =      40.0000  Ry
     charge density cutoff     =     320.0000  Ry
     scf convergence threshold =      1.0E-06
     mixing beta               =       0.7000
     number of iterations used =            8  plain     mixing
     Exchange-correlation= SLA  PW   PBX  PBC
                           (   1   4   3   4   0   0   0)

     celldm(1)=   4.696901  celldm(2)=   0.000000  celldm(3)=   0.000000
     celldm(4)=   0.000000  celldm(5)=   0.000000  celldm(6)=   0.000000

     crystal axes: (cart. coord. in units of alat)
               a(1) = (  -0.577350   0.577350   0.577350 )  
               a(2) = (   0.577350  -0.577350   0.577350 )  
               a(3) = (   0.577350   0.577350  -0.577350 )  

     reciprocal axes: (cart. coord. in units 2 pi/alat)
               b(1) = (  0.000000  0.866025  0.866025 )  
               b(2) = (  0.866025  0.000000  0.866025 )  
               b(3) = (  0.866025  0.866025  0.000000 )  


     PseudoPot. # 1 for Fe read from file:
     /home/kenobi/Workspaces/PHYS400/pseudopotentials/Fe.pbe-spn-kjpaw_psl.1.0.0.UPF
     MD5 check sum: fc81f059e5c5069939230b1155715ae8
     Pseudo is Projector augmented-wave + core cor, Zval = 16.0
     Generated using &quot;atomic&quot; code by A. Dal Corso  v.6.3
     Shape of augmentation charge: PSQ
     Using radial grid of 1191 points,  6 beta functions with: 
                l(1) =   0
                l(2) =   0
                l(3) =   1
                l(4) =   1
                l(5) =   2
                l(6) =   2
     Q(r) pseudized with 0 coefficients 


     atomic species   valence    mass     pseudopotential
     Fe               16.00    55.84500     Fe( 1.00)

     Starting magnetic structure 
     atomic species   magnetization
     Fe              0.144

     48 Sym. Ops., with inversion, found



   Cartesian axes

     site n.     atom                  positions (alat units)
         1        Fe     tau(   1) = (   0.0000000   0.0000000   0.0000000  )

     number of k points=    16  Marzari-Vanderbilt smearing, width (Ry)=  0.0200
                       cart. coord. in units 2pi/alat
        k(    1) = (   0.0000000   0.0000000   0.0000000), wk =   0.0046296
        k(    2) = (   0.1443376   0.1443376   0.0000000), wk =   0.0555556
        k(    3) = (   0.2886751   0.2886751   0.0000000), wk =   0.0555556
        k(    4) = (  -0.4330127  -0.4330127   0.0000000), wk =   0.0277778
        k(    5) = (   0.2886751   0.1443376   0.1443376), wk =   0.1111111
        k(    6) = (   0.4330127   0.2886751   0.1443376), wk =   0.2222222
        k(    7) = (   0.5773503   0.2886751   0.2886751), wk =   0.0370370
        k(    8) = (   0.2886751   0.2886751   0.2886751), wk =   0.0370370
        k(    9) = (   0.4330127   0.4330127   0.2886751), wk =   0.0555556
        k(   10) = (   0.0000000   0.0000000   0.2886751), wk =   0.0277778
        k(   11) = (  -0.0000000  -0.1443376   0.4330127), wk =   0.1111111
        k(   12) = (  -0.8660254  -0.2886751  -0.2886751), wk =   0.0555556
        k(   13) = (  -0.7216878  -0.1443376  -0.2886751), wk =   0.1111111
        k(   14) = (  -0.0000000  -0.0000000   0.5773503), wk =   0.0277778
        k(   15) = (  -0.8660254  -0.1443376  -0.1443376), wk =   0.0555556
        k(   16) = (  -0.8660254  -0.8660254  -0.8660254), wk =   0.0046296

     Dense  grid:     7803 G-vectors     FFT dimensions: (  27,  27,  27)

     Smooth grid:     2731 G-vectors     FFT dimensions: (  20,  20,  20)

     Estimated max dynamical RAM per process >      35.39 MB

     Check: negative core charge=   -0.000009
     Generating pointlists ...
     new r_m :   0.4125 (alat units)  1.9375 (a.u.) for type    1

     Initial potential from superposition of free atoms

     starting charge      15.9996, renormalised to      16.0000
     Starting wfcs are   10 randomized atomic wfcs +    2 random wfcs
     Checking if some PAW data can be deallocated... 

     total cpu time spent up to now is        1.0 secs

     Self-consistent Calculation

     iteration #  1     ecut=    40.00 Ry     beta= 0.70
     Davidson diagonalization with overlap
     ethr =  1.00E-02,  avg # of iterations =  4.4

     Threshold (ethr) on eigenvalues was too large:
     Diagonalizing with lowered threshold

     Davidson diagonalization with overlap
     ethr =  3.49E-04,  avg # of iterations =  1.5
     Minimization algorithm failed to find Fermi energy: reverting to bisection
     Possible cause: smearing is larger than the electronic band-gap.

     negative rho (up, down):  0.000E+00 9.824E-05

     total cpu time spent up to now is        2.0 secs

     total energy              =    -329.02402474 Ry
     estimated scf accuracy    <       0.05880881 Ry

     total magnetization       =     2.19 Bohr mag/cell
     absolute magnetization    =     2.20 Bohr mag/cell

     iteration #  2     ecut=    40.00 Ry     beta= 0.70
     Davidson diagonalization with overlap
     ethr =  3.68E-04,  avg # of iterations =  2.9

     negative rho (up, down):  0.000E+00 1.056E-04

     total cpu time spent up to now is        2.7 secs

     total energy              =    -329.02510631 Ry
     estimated scf accuracy    <       0.16318866 Ry

     total magnetization       =     2.32 Bohr mag/cell
     absolute magnetization    =     2.38 Bohr mag/cell

     iteration #  3     ecut=    40.00 Ry     beta= 0.70
     Davidson diagonalization with overlap
     ethr =  3.68E-04,  avg # of iterations =  2.2

     negative rho (up, down):  0.000E+00 3.495E-04

     total cpu time spent up to now is        3.5 secs

     total energy              =    -329.05603629 Ry
     estimated scf accuracy    <       0.00098118 Ry

     total magnetization       =     2.19 Bohr mag/cell
     absolute magnetization    =     2.27 Bohr mag/cell

     iteration #  4     ecut=    40.00 Ry     beta= 0.70
     Davidson diagonalization with overlap
     ethr =  6.13E-06,  avg # of iterations =  3.1

     negative rho (up, down):  0.000E+00 3.731E-04

     total cpu time spent up to now is        4.2 secs

     total energy              =    -329.05656165 Ry
     estimated scf accuracy    <       0.00013997 Ry

     total magnetization       =     2.19 Bohr mag/cell
     absolute magnetization    =     2.31 Bohr mag/cell

     iteration #  5     ecut=    40.00 Ry     beta= 0.70
     Davidson diagonalization with overlap
     ethr =  8.75E-07,  avg # of iterations =  1.9

     negative rho (up, down):  0.000E+00 3.717E-04

     total cpu time spent up to now is        4.9 secs

     total energy              =    -329.05662002 Ry
     estimated scf accuracy    <       0.00001355 Ry

     total magnetization       =     2.19 Bohr mag/cell
     absolute magnetization    =     2.33 Bohr mag/cell

     iteration #  6     ecut=    40.00 Ry     beta= 0.70
     Davidson diagonalization with overlap
     ethr =  8.47E-08,  avg # of iterations =  2.1

     negative rho (up, down):  0.000E+00 3.750E-04

     total cpu time spent up to now is        5.6 secs

     total energy              =    -329.05662516 Ry
     estimated scf accuracy    <       0.00000114 Ry

     total magnetization       =     2.19 Bohr mag/cell
     absolute magnetization    =     2.33 Bohr mag/cell

     iteration #  7     ecut=    40.00 Ry     beta= 0.70
     Davidson diagonalization with overlap
     ethr =  7.12E-09,  avg # of iterations =  2.3

     negative rho (up, down):  0.000E+00 3.743E-04

     total cpu time spent up to now is        6.4 secs

     total energy              =    -329.05662581 Ry
     estimated scf accuracy    <       0.00000137 Ry

     total magnetization       =     2.19 Bohr mag/cell
     absolute magnetization    =     2.34 Bohr mag/cell

     iteration #  8     ecut=    40.00 Ry     beta= 0.70
     Davidson diagonalization with overlap
     ethr =  7.12E-09,  avg # of iterations =  1.8

     negative rho (up, down):  0.000E+00 3.745E-04

     Magnetic moment per site  (integrated on atomic sphere of radius R)
     atom   1 (R=0.413)  charge= 14.4207  magn=  2.2550

     total cpu time spent up to now is        7.1 secs

     End of self-consistent calculation

 ------ SPIN UP ------------


          k = 0.0000 0.0000 0.0000 (   321 PWs)   bands (ev):

   -70.9332 -36.5731 -36.5731 -36.5731   9.1916  15.4132  15.4132  15.4132
    16.6656  16.6656  41.5915  41.5915

          k = 0.1443 0.1443 0.0000 (   346 PWs)   bands (ev):

   -70.9237 -36.7405 -36.6725 -36.6525  10.2422  15.0220  15.1890  15.8683
    16.2224  16.4153  36.4970  39.7491

          k = 0.2887 0.2887 0.0000 (   350 PWs)   bands (ev):

   -70.8909 -36.9007 -36.7462 -36.6597  12.3776  14.4708  15.5452  16.3771
    16.5179  17.0904  29.0396  36.4907

          k =-0.4330-0.4330 0.0000 (   340 PWs)   bands (ev):

   -70.8723 -36.9420 -36.7619 -36.6440  12.7699  14.2262  16.4806  16.7294
    17.8599  17.9458  24.5438  35.1902

          k = 0.2887 0.1443 0.1443 (   339 PWs)   bands (ev):

   -70.8967 -36.8162 -36.6866 -36.6600  12.0381  14.7319  14.8235  16.2345
    16.6257  17.1814  32.7945  33.7707

          k = 0.4330 0.2887 0.1443 (   341 PWs)   bands (ev):

   -70.8726 -36.9173 -36.7763 -36.6596  13.2680  14.3854  15.3252  16.4260
    16.9735  19.4846  26.3129  31.2318

          k = 0.5774 0.2887 0.2887 (   333 PWs)   bands (ev):

   -70.8625 -36.8410 -36.8410 -36.6582  13.9871  14.5556  14.5556  16.8483
    16.8483  23.9877  23.9877  26.5312

          k = 0.2887 0.2887 0.2887 (   342 PWs)   bands (ev):

   -70.8794 -36.8990 -36.7207 -36.7207  13.8586  14.3207  14.3207  16.5657
    16.5657  19.4164  30.0864  30.0864

          k = 0.4330 0.4330 0.2887 (   338 PWs)   bands (ev):

   -70.8695 -36.8823 -36.7832 -36.7194  13.9280  14.1860  15.0306  16.6832
    16.7255  22.7124  25.0132  29.1225

          k = 0.0000 0.0000 0.2887 (   349 PWs)   bands (ev):

   -70.9086 -36.7611 -36.7107 -36.7107  11.2120  15.3654  15.3654  15.4756
    15.8593  16.7347  36.3206  37.6452

          k =-0.0000-0.1443 0.4330 (   339 PWs)   bands (ev):

   -70.8750 -36.8591 -36.7477 -36.6880  13.0572  14.6422  15.1564  16.0678
    17.0770  17.8561  29.7622  34.3681

          k =-0.8660-0.2887-0.2887 (   328 PWs)   bands (ev):

   -70.8569 -36.9024 -36.7540 -36.6464  13.3313  14.9006  15.0273  16.2653
    17.9557  20.5594  24.7220  32.9333

          k =-0.7217-0.1443-0.2887 (   338 PWs)   bands (ev):

   -70.8530 -36.8904 -36.8241 -36.7038  13.9051  13.9064  15.1507  16.6232
    17.3596  21.3674  27.1488  28.0412

          k =-0.0000-0.0000 0.5774 (   338 PWs)   bands (ev):

   -70.8484 -36.8239 -36.8124 -36.8124  13.4461  13.7242  16.4790  16.4790
    17.0475  20.2003  30.5195  30.5195

          k =-0.8660-0.1443-0.1443 (   350 PWs)   bands (ev):

   -70.8371 -36.9356 -36.8779 -36.7993  13.2004  13.3526  16.5981  16.8260
    17.5709  24.2347  25.5828  28.8312

          k =-0.8660-0.8660-0.8660 (   370 PWs)   bands (ev):

   -70.8287 -36.9420 -36.9420 -36.9420  12.7698  12.7698  17.4682  17.4682
    17.4682  26.9506  26.9506  26.9506

 ------ SPIN DOWN ----------


          k = 0.0000 0.0000 0.0000 (   321 PWs)   bands (ev):

   -68.2633 -33.9486 -33.9486 -33.9486   9.2759  17.3315  17.3315  17.3315
    19.4520  19.4520  41.2970  41.2970

          k = 0.1443 0.1443 0.0000 (   346 PWs)   bands (ev):

   -68.2501 -34.1258 -34.0501 -34.0275  10.3451  16.8866  17.0700  17.8474
    18.9133  19.2129  36.8271  39.7293

          k = 0.2887 0.2887 0.0000 (   350 PWs)   bands (ev):

   -68.2143 -34.3069 -34.1297 -34.0346  12.8914  16.2344  16.8575  18.9041
    19.2212  19.3473  29.8662  36.5206

          k =-0.4330-0.4330 0.0000 (   340 PWs)   bands (ev):

   -68.1949 -34.3590 -34.1487 -34.0186  14.0148  15.9461  17.8920  19.0526
    19.5849  20.1857  25.8935  35.1770

          k = 0.2887 0.1443 0.1443 (   339 PWs)   bands (ev):

   -68.2215 -34.2159 -34.0688 -34.0369  12.2586  16.5484  16.5653  18.7945
    19.0919  19.5198  33.3597  34.2744

          k = 0.4330 0.2887 0.1443 (   341 PWs)   bands (ev):

   -68.1951 -34.3282 -34.1657 -34.0377  14.3848  16.0692  16.5986  18.9490
    19.5921  21.1291  27.3168  31.7673

          k = 0.5774 0.2887 0.2887 (   333 PWs)   bands (ev):

   -68.1846 -34.2440 -34.2440 -34.0378  15.4988  16.0185  16.0185  19.3739
    19.3739  25.0558  25.0558  27.3721

          k = 0.2887 0.2887 0.2887 (   342 PWs)   bands (ev):

   -68.2024 -34.3066 -34.1043 -34.1043  14.4211  15.9318  15.9318  19.3443
    19.3443  21.1459  30.7172  30.7173

          k = 0.4330 0.4330 0.2887 (   338 PWs)   bands (ev):

   -68.1920 -34.2882 -34.1756 -34.1044  15.2655  15.7187  16.2173  19.4486
    19.5898  23.7805  26.0638  29.7539

          k = 0.0000 0.0000 0.2887 (   349 PWs)   bands (ev):

   -68.2335 -34.1492 -34.0914 -34.0914  11.3557  17.2302  17.2302  17.8467
    17.9858  19.5454  36.6053  38.1292

          k =-0.0000-0.1443 0.4330 (   339 PWs)   bands (ev):

   -68.1980 -34.2628 -34.1352 -34.0711  13.6874  16.5592  16.9623  18.2112
    19.1908  20.1603  30.5388  34.9344

          k =-0.8660-0.2887-0.2887 (   328 PWs)   bands (ev):

   -68.1791 -34.3156 -34.1452 -34.0289  14.7716  16.4621  16.7956  18.5330
    20.1874  21.8052  25.9535  33.4471

          k =-0.7217-0.1443-0.2887 (   338 PWs)   bands (ev):

   -68.1741 -34.2970 -34.2220 -34.0888  15.2842  15.7498  16.9212  18.7328
    19.5734  22.7018  28.0487  28.7248

          k =-0.0000-0.0000 0.5774 (   338 PWs)   bands (ev):

   -68.1687 -34.2261 -34.2070 -34.2070  14.7814  15.7502  18.3902  18.3902
    19.1774  21.5836  31.0389  31.0389

          k =-0.8660-0.1443-0.1443 (   350 PWs)   bands (ev):

   -68.1558 -34.3403 -34.2765 -34.1951  15.0448  15.1264  18.5648  18.8107
    19.7901  24.9831  26.3261  29.2374

          k =-0.8660-0.8660-0.8660 (   370 PWs)   bands (ev):

   -68.1454 -34.3435 -34.3435 -34.3435  14.6168  14.6168  19.6797  19.6797
    19.6797  27.1554  27.1554  27.1554

     the Fermi energy is    17.4165 ev

!    total energy              =    -329.05662615 Ry
     total all-electron energy =     -2545.353159 Ry
     estimated scf accuracy    <       0.00000001 Ry
     smearing contrib. (-TS)   =       0.00232388 Ry
     internal energy E=F+TS    =    -329.05895003 Ry

     The total energy is F=E-TS. E is the sum of the following terms:
     one-electron contribution =    -112.84800033 Ry
     hartree contribution      =      66.02584412 Ry
     xc contribution           =     -27.71038756 Ry
     ewald contribution        =    -171.77862303 Ry
     one-center paw contrib.   =     -82.74778324 Ry

     total magnetization       =     2.19 Bohr mag/cell
     absolute magnetization    =     2.34 Bohr mag/cell

     convergence has been achieved in   8 iterations

     negative rho (up, down):  0.000E+00 3.745E-04

     Forces acting on atoms (cartesian axes, Ry/au):

     atom    1 type  1   force =     0.00000000    0.00000000    0.00000000

     Total force =     0.000000     Total SCF correction =     0.000000


     Computing stress (Cartesian axis) and pressure


     negative rho (up, down):  0.000E+00 3.745E-04
          total   stress  (Ry/bohr**3)                   (kbar)     P=    -2650.94
  -0.01802072   0.00000000   0.00000000        -2650.94        0.00        0.00
   0.00000000  -0.01802072   0.00000000            0.00    -2650.94        0.00
   0.00000000   0.00000000  -0.01802072            0.00        0.00    -2650.94


     Writing all to output data dir ./pwscf.save/ :
     XML data file, charge density, pseudopotentials, collected wavefunctions

     init_run     :      0.79s CPU      0.84s WALL (       1 calls)
     electrons    :      5.76s CPU      6.09s WALL (       1 calls)
     forces       :      0.08s CPU      0.08s WALL (       1 calls)
     stress       :      0.30s CPU      0.30s WALL (       1 calls)

     Called by init_run:
     wfcinit      :      0.10s CPU      0.10s WALL (       1 calls)
     potinit      :      0.41s CPU      0.45s WALL (       1 calls)
     hinit0       :      0.26s CPU      0.26s WALL (       1 calls)

     Called by electrons:
     c_bands      :      1.85s CPU      1.86s WALL (       9 calls)
     sum_band     :      0.61s CPU      0.62s WALL (       9 calls)
     v_of_rho     :      0.15s CPU      0.15s WALL (       9 calls)
     newd         :      0.20s CPU      0.25s WALL (       9 calls)
     PAW_pot      :      3.34s CPU      3.64s WALL (       9 calls)
     mix_rho      :      0.01s CPU      0.01s WALL (       9 calls)

     Called by c_bands:
     init_us_2    :      0.04s CPU      0.04s WALL (     672 calls)
     cegterg      :      1.78s CPU      1.80s WALL (     288 calls)

     Called by *egterg:
     cdiaghg      :      0.11s CPU      0.11s WALL (     968 calls)
     h_psi        :      1.38s CPU      1.39s WALL (    1032 calls)
     s_psi        :      0.06s CPU      0.06s WALL (    1032 calls)
     g_psi        :      0.01s CPU      0.01s WALL (     712 calls)

     Called by h_psi:
     h_psi:calbec :      0.08s CPU      0.08s WALL (    1032 calls)
     vloc_psi     :      1.24s CPU      1.25s WALL (    1032 calls)
                                        0.00s GPU  (    1032 calls)
     add_vuspsi   :      0.06s CPU      0.06s WALL (    1032 calls)

     General routines
     calbec       :      0.17s CPU      0.17s WALL (    1864 calls)
     fft          :      0.07s CPU      0.07s WALL (     265 calls)
     ffts         :      0.00s CPU      0.00s WALL (      36 calls)
     fftw         :      1.36s CPU      1.37s WALL (   20914 calls)
     interpolate  :      0.01s CPU      0.01s WALL (      18 calls)

     Parallel routines

     PWSCF        :      7.05s CPU      7.44s WALL


   This run was terminated on:  15:54:21  15Mar2026            

=------------------------------------------------------------------------------=
   JOB DONE.
=------------------------------------------------------------------------------=
