
     Program PWSCF v.7.5 starts on 15Mar2026 at 16:10: 4 

     This program is part of the open-source Quantum ESPRESSO suite
     for quantum simulation of materials; please cite
         "P. Giannozzi et al., J. Phys.:Condens. Matter 21 395502 (2009);
         "P. Giannozzi et al., J. Phys.:Condens. Matter 29 465901 (2017);
         "P. Giannozzi et al., J. Chem. Phys. 152 154105 (2020);
          URL http://www.quantum-espresso.org", 
     in publications or presentations arising from this work. More details at
     http://www.quantum-espresso.org/quote

     Parallel version (MPI), running on     1 processors

     MPI processes distributed on     1 nodes
     1450 MiB available memory on the printing compute node when the environment starts

     Reading input from espresso.pwi
Warning: card &CELL ignored
Warning: card &FCP ignored
Warning: card &RISM ignored

     Current dimensions of program PWSCF are:
     Max number of different atomic species (ntypx) = 10
     Max number of k-points (npk) =  40000
     Max angular momentum in pseudopotentials (lmaxx) =  4
     file Al.pbe-n-kjpaw_psl.1.0.0.UPF: wavefunction(s)  3S 3P renormalized
     Message from routine setup:
     using ibrav=0 with symmetry is DISCOURAGED, use correct ibrav instead

     Subspace diagonalization in iterative solution of the eigenvalue problem:
     a serial algorithm will be used


     G-vector sticks info
     --------------------
     sticks:   dense  smooth     PW     G-vecs:    dense   smooth      PW
     Sum         253     121     55                 2733      941     259

     Using Slab Decomposition



     bravais-lattice index     =            0
     lattice parameter (alat)  =       3.4066  a.u.
     unit-cell volume          =      27.9538 (a.u.)^3
     number of atoms/cell      =            1
     number of atomic types    =            1
     number of electrons       =         3.00
     number of Kohn-Sham states=            6
     kinetic-energy cutoff     =      40.0000  Ry
     charge density cutoff     =     320.0000  Ry
     scf convergence threshold =      1.0E-06
     mixing beta               =       0.7000
     number of iterations used =            8  plain     mixing
     Exchange-correlation= SLA  PW   PBX  PBC
                           (   1   4   3   4   0   0   0)

     celldm(1)=   3.406581  celldm(2)=   0.000000  celldm(3)=   0.000000
     celldm(4)=   0.000000  celldm(5)=   0.000000  celldm(6)=   0.000000

     crystal axes: (cart. coord. in units of alat)
               a(1) = (   0.000000   0.707107   0.707107 )  
               a(2) = (   0.707107   0.000000   0.707107 )  
               a(3) = (   0.707107   0.707107   0.000000 )  

     reciprocal axes: (cart. coord. in units 2 pi/alat)
               b(1) = ( -0.707107  0.707107  0.707107 )  
               b(2) = (  0.707107 -0.707107  0.707107 )  
               b(3) = (  0.707107  0.707107 -0.707107 )  


     PseudoPot. # 1 for Al read from file:
     /home/kenobi/Workspaces/PHYS400/pseudopotentials/Al.pbe-n-kjpaw_psl.1.0.0.UPF
     MD5 check sum: 502b6b27b9c6270cab5dd1084b96fa6d
     Pseudo is Projector augmented-wave + core cor, Zval =  3.0
     Generated using &quot;atomic&quot; code by A. Dal Corso  v.6.3
     Shape of augmentation charge: PSQ
     Using radial grid of 1135 points,  6 beta functions with: 
                l(1) =   0
                l(2) =   0
                l(3) =   1
                l(4) =   1
                l(5) =   2
                l(6) =   2
     Q(r) pseudized with 0 coefficients 


     atomic species   valence    mass     pseudopotential
     Al                3.00    26.98154     Al( 1.00)

     48 Sym. Ops., with inversion, found



   Cartesian axes

     site n.     atom                  positions (alat units)
         1        Al     tau(   1) = (   0.0000000   0.0000000   0.0000000  )

     number of k points=    16  Marzari-Vanderbilt smearing, width (Ry)=  0.0200
                       cart. coord. in units 2pi/alat
        k(    1) = (   0.0000000   0.0000000   0.0000000), wk =   0.0092593
        k(    2) = (   0.1178511   0.1178511  -0.1178511), wk =   0.0740741
        k(    3) = (   0.2357023   0.2357023  -0.2357023), wk =   0.0740741
        k(    4) = (  -0.3535534  -0.3535534   0.3535534), wk =   0.0370370
        k(    5) = (   0.2357023   0.0000000   0.0000000), wk =   0.0555556
        k(    6) = (   0.3535534   0.1178511  -0.1178511), wk =   0.2222222
        k(    7) = (  -0.2357023  -0.4714045   0.4714045), wk =   0.2222222
        k(    8) = (  -0.1178511  -0.3535534   0.3535534), wk =   0.2222222
        k(    9) = (   0.0000000  -0.2357023   0.2357023), wk =   0.1111111
        k(   10) = (   0.4714045   0.0000000   0.0000000), wk =   0.0555556
        k(   11) = (  -0.1178511  -0.5892557   0.5892557), wk =   0.2222222
        k(   12) = (  -0.0000000  -0.4714045   0.4714045), wk =   0.1111111
        k(   13) = (  -0.7071068   0.0000000   0.0000000), wk =   0.0277778
        k(   14) = (  -0.2357023  -0.4714045   0.7071068), wk =   0.2222222
        k(   15) = (  -0.1178511  -0.3535534   0.5892557), wk =   0.2222222
        k(   16) = (  -0.7071068   0.2357023   0.0000000), wk =   0.1111111

     Dense  grid:     2733 G-vectors     FFT dimensions: (  20,  20,  20)

     Smooth grid:      941 G-vectors     FFT dimensions: (  15,  15,  15)

     Estimated max dynamical RAM per process >      11.71 MB

     Initial potential from superposition of free atoms

     starting charge       2.9977, renormalised to       3.0000
     Starting wfcs are    4 randomized atomic wfcs +    2 random wfcs
     Checking if some PAW data can be deallocated... 

     total cpu time spent up to now is        0.6 secs

     Self-consistent Calculation

     iteration #  1     ecut=    40.00 Ry     beta= 0.70
     Davidson diagonalization with overlap
     ethr =  1.00E-02,  avg # of iterations =  6.7
     Minimization algorithm failed to find Fermi energy: reverting to bisection
     Possible cause: smearing is larger than the electronic band-gap.

     Threshold (ethr) on eigenvalues was too large:
     Diagonalizing with lowered threshold

     Davidson diagonalization with overlap
     ethr =  5.41E-04,  avg # of iterations =  1.3

     total cpu time spent up to now is        0.9 secs

     total energy              =     -37.92604600 Ry
     estimated scf accuracy    <       0.01621193 Ry

     iteration #  2     ecut=    40.00 Ry     beta= 0.70
     Davidson diagonalization with overlap
     ethr =  5.40E-04,  avg # of iterations =  2.0
     Minimization algorithm failed to find Fermi energy: reverting to bisection
     Possible cause: smearing is larger than the electronic band-gap.

     total cpu time spent up to now is        1.1 secs

     total energy              =     -37.92851148 Ry
     estimated scf accuracy    <       0.00200639 Ry

     iteration #  3     ecut=    40.00 Ry     beta= 0.70
     Davidson diagonalization with overlap
     ethr =  6.69E-05,  avg # of iterations =  2.1
     Minimization algorithm failed to find Fermi energy: reverting to bisection
     Possible cause: smearing is larger than the electronic band-gap.

     total cpu time spent up to now is        1.3 secs

     total energy              =     -37.92882555 Ry
     estimated scf accuracy    <       0.00000393 Ry

     iteration #  4     ecut=    40.00 Ry     beta= 0.70
     Davidson diagonalization with overlap
     ethr =  1.31E-07,  avg # of iterations =  4.5
     Minimization algorithm failed to find Fermi energy: reverting to bisection
     Possible cause: smearing is larger than the electronic band-gap.

     total cpu time spent up to now is        1.5 secs

     End of self-consistent calculation

          k = 0.0000 0.0000 0.0000 (   113 PWs)   bands (ev):

    10.4830  56.2563  56.2563  56.2563  65.7072  74.4138

          k = 0.1179 0.1179-0.1179 (   122 PWs)   bands (ev):

    12.3637  45.9036  56.3808  56.3808  67.5610  68.1309

          k = 0.2357 0.2357-0.2357 (   117 PWs)   bands (ev):

    17.4356  34.3352  54.3411  54.3411  63.4865  69.4272

          k =-0.3536-0.3536 0.3536 (   120 PWs)   bands (ev):

    23.6523  26.1400  52.9133  52.9133  62.4514  72.3791

          k = 0.2357 0.0000 0.0000 (   125 PWs)   bands (ev):

    12.9588  47.0159  54.3995  54.3995  55.8901  76.9325

          k = 0.3536 0.1179-0.1179 (   120 PWs)   bands (ev):

    16.8762  38.3100  47.2314  53.3415  58.9342  76.7421

          k =-0.2357-0.4714 0.4714 (   119 PWs)   bands (ev):

    23.0262  29.1999  43.9046  52.7700  63.9428  75.8090

          k =-0.1179-0.3536 0.3536 (   121 PWs)   bands (ev):

    20.8472  32.0684  43.4673  54.3648  67.9669  69.0857

          k = 0.0000-0.2357 0.2357 (   127 PWs)   bands (ev):

    15.2695  40.6877  47.3950  59.1972  61.4817  69.0756

          k = 0.4714 0.0000 0.0000 (   129 PWs)   bands (ev):

    19.3235  39.3126  39.6990  52.8759  52.8759  77.3106

          k =-0.1179-0.5893 0.5893 (   120 PWs)   bands (ev):

    24.2035  32.9975  35.9658  52.6582  55.5744  78.2570

          k =-0.0000-0.4714 0.4714 (   116 PWs)   bands (ev):

    25.7526  31.6127  34.4790  53.0912  61.1662  76.6799

          k =-0.7071 0.0000 0.0000 (   116 PWs)   bands (ev):

    26.7497  29.4719  36.6908  52.6668  52.6668  74.8068

          k =-0.2357-0.4714 0.7071 (   122 PWs)   bands (ev):

    21.2529  35.3451  38.4206  51.9252  61.8318  74.6809

          k =-0.1179-0.3536 0.5893 (   114 PWs)   bands (ev):

    26.1025  29.9754  36.5061  50.3423  67.8419  69.6705

          k =-0.7071 0.2357 0.0000 (   112 PWs)   bands (ev):

    28.0705  30.4331  33.5413  49.2511  61.1700  78.9441

     the Fermi energy is    32.9077 ev

!    total energy              =     -37.92882850 Ry
     total all-electron energy =      -484.071609 Ry
     estimated scf accuracy    <       0.00000022 Ry
     smearing contrib. (-TS)   =      -0.00061268 Ry
     internal energy E=F+TS    =     -37.92821582 Ry

     The total energy is F=E-TS. E is the sum of the following terms:
     one-electron contribution =       9.48533607 Ry
     hartree contribution      =       0.04052587 Ry
     xc contribution           =      -3.71193338 Ry
     ewald contribution        =      -8.56515194 Ry
     one-center paw contrib.   =     -35.17699244 Ry

     convergence has been achieved in   4 iterations

     Forces acting on atoms (cartesian axes, Ry/au):

     atom    1 type  1   force =     0.00000000    0.00000000    0.00000000

     Total force =     0.000000     Total SCF correction =     0.000000


     Computing stress (Cartesian axis) and pressure

          total   stress  (Ry/bohr**3)                   (kbar)     P=    17650.96
   0.11998878  -0.00000000  -0.00000000        17650.96       -0.00       -0.00
  -0.00000000   0.11998878   0.00000000           -0.00    17650.96        0.00
  -0.00000000   0.00000000   0.11998878           -0.00        0.00    17650.96


     Writing all to output data dir ./pwscf.save/ :
     XML data file, charge density, pseudopotentials, collected wavefunctions

     init_run     :      0.44s CPU      0.47s WALL (       1 calls)
     electrons    :      0.83s CPU      0.89s WALL (       1 calls)
     forces       :      0.01s CPU      0.01s WALL (       1 calls)
     stress       :      0.08s CPU      0.08s WALL (       1 calls)

     Called by init_run:
     wfcinit      :      0.01s CPU      0.01s WALL (       1 calls)
     potinit      :      0.18s CPU      0.20s WALL (       1 calls)
     hinit0       :      0.24s CPU      0.25s WALL (       1 calls)

     Called by electrons:
     c_bands      :      0.10s CPU      0.10s WALL (       5 calls)
     sum_band     :      0.05s CPU      0.05s WALL (       5 calls)
     v_of_rho     :      0.01s CPU      0.01s WALL (       5 calls)
     newd         :      0.03s CPU      0.03s WALL (       5 calls)
     PAW_pot      :      0.81s CPU      0.88s WALL (       5 calls)
     mix_rho      :      0.00s CPU      0.00s WALL (       5 calls)

     Called by c_bands:
     init_us_2    :      0.00s CPU      0.00s WALL (     208 calls)
     cegterg      :      0.09s CPU      0.09s WALL (      80 calls)

     Called by *egterg:
     cdiaghg      :      0.01s CPU      0.01s WALL (     330 calls)
     h_psi        :      0.07s CPU      0.07s WALL (     362 calls)
     s_psi        :      0.00s CPU      0.00s WALL (     362 calls)
     g_psi        :      0.00s CPU      0.00s WALL (     266 calls)

     Called by h_psi:
     h_psi:calbec :      0.01s CPU      0.01s WALL (     362 calls)
     vloc_psi     :      0.06s CPU      0.06s WALL (     362 calls)
                                        0.00s GPU  (     362 calls)
     add_vuspsi   :      0.00s CPU      0.00s WALL (     362 calls)

     General routines
     calbec       :      0.01s CPU      0.01s WALL (     714 calls)
     fft          :      0.01s CPU      0.01s WALL (      89 calls)
     ffts         :      0.00s CPU      0.00s WALL (      10 calls)
     fftw         :      0.06s CPU      0.06s WALL (    3426 calls)
     interpolate  :      0.00s CPU      0.00s WALL (       5 calls)

     Parallel routines

     PWSCF        :      1.49s CPU      1.58s WALL


   This run was terminated on:  16:10: 6  15Mar2026            

=------------------------------------------------------------------------------=
   JOB DONE.
=------------------------------------------------------------------------------=
