
     Program PWSCF v.7.5 starts on 15Mar2026 at 15:55:18 

     This program is part of the open-source Quantum ESPRESSO suite
     for quantum simulation of materials; please cite
         "P. Giannozzi et al., J. Phys.:Condens. Matter 21 395502 (2009);
         "P. Giannozzi et al., J. Phys.:Condens. Matter 29 465901 (2017);
         "P. Giannozzi et al., J. Chem. Phys. 152 154105 (2020);
          URL http://www.quantum-espresso.org", 
     in publications or presentations arising from this work. More details at
     http://www.quantum-espresso.org/quote

     Parallel version (MPI), running on     1 processors

     MPI processes distributed on     1 nodes
     3404 MiB available memory on the printing compute node when the environment starts

     Reading input from espresso.pwi
Warning: card &CELL ignored
Warning: card &FCP ignored
Warning: card &RISM ignored

     Current dimensions of program PWSCF are:
     Max number of different atomic species (ntypx) = 10
     Max number of k-points (npk) =  40000
     Max angular momentum in pseudopotentials (lmaxx) =  4
     file Mg.pbe-spnl-kjpaw_psl.1.0.0.UPF: wavefunction(s)  2P renormalized
     Message from routine setup:
     using ibrav=0 with symmetry is DISCOURAGED, use correct ibrav instead

     Subspace diagonalization in iterative solution of the eigenvalue problem:
     a serial algorithm will be used


     G-vector sticks info
     --------------------
     sticks:   dense  smooth     PW     G-vecs:    dense   smooth      PW
     Sum         847     433    139                16529     5817    1067

     Using Slab Decomposition



     bravais-lattice index     =            0
     lattice parameter (alat)  =       6.2278  a.u.
     unit-cell volume          =     170.7989 (a.u.)^3
     number of atoms/cell      =            1
     number of atomic types    =            1
     number of electrons       =        10.00
     number of Kohn-Sham states=            9
     kinetic-energy cutoff     =      40.0000  Ry
     charge density cutoff     =     320.0000  Ry
     scf convergence threshold =      1.0E-06
     mixing beta               =       0.7000
     number of iterations used =            8  plain     mixing
     Exchange-correlation= SLA  PW   PBX  PBC
                           (   1   4   3   4   0   0   0)

     celldm(1)=   6.227781  celldm(2)=   0.000000  celldm(3)=   0.000000
     celldm(4)=   0.000000  celldm(5)=   0.000000  celldm(6)=   0.000000

     crystal axes: (cart. coord. in units of alat)
               a(1) = (   0.000000   0.707107   0.707107 )  
               a(2) = (   0.707107   0.000000   0.707107 )  
               a(3) = (   0.707107   0.707107   0.000000 )  

     reciprocal axes: (cart. coord. in units 2 pi/alat)
               b(1) = ( -0.707107  0.707107  0.707107 )  
               b(2) = (  0.707107 -0.707107  0.707107 )  
               b(3) = (  0.707107  0.707107 -0.707107 )  


     PseudoPot. # 1 for Mg read from file:
     /home/kenobi/Workspaces/PHYS400/pseudopotentials/Mg.pbe-spnl-kjpaw_psl.1.0.0.UPF
     MD5 check sum: fda14e0d92a6a9a5ebed782e5a4b3067
     Pseudo is Projector augmented-wave + core cor, Zval = 10.0
     Generated using &quot;atomic&quot; code by A. Dal Corso  v.6.3
     Shape of augmentation charge: PSQ
     Using radial grid of 1129 points,  4 beta functions with: 
                l(1) =   0
                l(2) =   0
                l(3) =   1
                l(4) =   1
     Q(r) pseudized with 0 coefficients 


     atomic species   valence    mass     pseudopotential
     Mg               10.00    24.30500     Mg( 1.00)

     48 Sym. Ops., with inversion, found



   Cartesian axes

     site n.     atom                  positions (alat units)
         1        Mg     tau(   1) = (   0.0000000   0.0000000   0.0000000  )

     number of k points=    16  Marzari-Vanderbilt smearing, width (Ry)=  0.0200
                       cart. coord. in units 2pi/alat
        k(    1) = (   0.0000000   0.0000000   0.0000000), wk =   0.0092593
        k(    2) = (   0.1178511   0.1178511  -0.1178511), wk =   0.0740741
        k(    3) = (   0.2357023   0.2357023  -0.2357023), wk =   0.0740741
        k(    4) = (  -0.3535534  -0.3535534   0.3535534), wk =   0.0370370
        k(    5) = (   0.2357023   0.0000000   0.0000000), wk =   0.0555556
        k(    6) = (   0.3535534   0.1178511  -0.1178511), wk =   0.2222222
        k(    7) = (  -0.2357023  -0.4714045   0.4714045), wk =   0.2222222
        k(    8) = (  -0.1178511  -0.3535534   0.3535534), wk =   0.2222222
        k(    9) = (   0.0000000  -0.2357023   0.2357023), wk =   0.1111111
        k(   10) = (   0.4714045   0.0000000   0.0000000), wk =   0.0555556
        k(   11) = (  -0.1178511  -0.5892557   0.5892557), wk =   0.2222222
        k(   12) = (  -0.0000000  -0.4714045   0.4714045), wk =   0.1111111
        k(   13) = (  -0.7071068   0.0000000   0.0000000), wk =   0.0277778
        k(   14) = (  -0.2357023  -0.4714045   0.7071068), wk =   0.2222222
        k(   15) = (  -0.1178511  -0.3535534   0.5892557), wk =   0.2222222
        k(   16) = (  -0.7071068   0.2357023   0.0000000), wk =   0.1111111

     Dense  grid:    16529 G-vectors     FFT dimensions: (  36,  36,  36)

     Smooth grid:     5817 G-vectors     FFT dimensions: (  25,  25,  25)

     Estimated max dynamical RAM per process >      24.81 MB

     Check: negative core charge=   -0.000014

     Initial potential from superposition of free atoms

     starting charge       9.9991, renormalised to      10.0000
     Starting wfcs are    5 randomized atomic wfcs +    4 random wfcs
     Checking if some PAW data can be deallocated... 

     total cpu time spent up to now is        0.4 secs

     Self-consistent Calculation

     iteration #  1     ecut=    40.00 Ry     beta= 0.70
     Davidson diagonalization with overlap
     ethr =  1.00E-02,  avg # of iterations =  6.1

     Threshold (ethr) on eigenvalues was too large:
     Diagonalizing with lowered threshold

     Davidson diagonalization with overlap
     ethr =  6.47E-05,  avg # of iterations =  3.6

     total cpu time spent up to now is        0.9 secs

     total energy              =    -141.34789981 Ry
     estimated scf accuracy    <       0.00666451 Ry

     iteration #  2     ecut=    40.00 Ry     beta= 0.70
     Davidson diagonalization with overlap
     ethr =  6.66E-05,  avg # of iterations =  1.6

     total cpu time spent up to now is        1.2 secs

     total energy              =    -141.34847846 Ry
     estimated scf accuracy    <       0.00041523 Ry

     iteration #  3     ecut=    40.00 Ry     beta= 0.70
     Davidson diagonalization with overlap
     ethr =  4.15E-06,  avg # of iterations =  3.3

     total cpu time spent up to now is        1.4 secs

     total energy              =    -141.34850804 Ry
     estimated scf accuracy    <       0.00001633 Ry

     iteration #  4     ecut=    40.00 Ry     beta= 0.70
     Davidson diagonalization with overlap
     ethr =  1.63E-07,  avg # of iterations =  3.7

     total cpu time spent up to now is        1.6 secs

     End of self-consistent calculation

          k = 0.0000 0.0000 0.0000 (   725 PWs)   bands (ev):

   -71.8367 -38.5391 -38.5391 -38.5391  -1.8119  16.3912  16.3912  16.3913
    17.9461

          k = 0.1179 0.1179-0.1179 (   718 PWs)   bands (ev):

   -71.8362 -38.5344 -38.5344 -38.5330  -1.2299  11.7954  15.5308  15.5308
    17.7002

          k = 0.2357 0.2357-0.2357 (   745 PWs)   bands (ev):

   -71.8355 -38.5711 -38.5525 -38.5525   0.4656   7.0685  15.0805  15.0805
    17.1353

          k =-0.3536-0.3536 0.3536 (   718 PWs)   bands (ev):

   -71.8349 -38.5559 -38.5360 -38.5360   3.1125   3.4338  15.3804  15.3805
    15.8740

          k = 0.2357 0.0000 0.0000 (   729 PWs)   bands (ev):

   -71.8361 -38.5457 -38.5398 -38.5398  -1.0448  13.5313  13.7485  13.7485
    15.8941

          k = 0.3536 0.1179-0.1179 (   731 PWs)   bands (ev):

   -71.8354 -38.5605 -38.5437 -38.5430   0.2841   8.9879  12.9384  13.2166
    14.1473

          k =-0.2357-0.4714 0.4714 (   732 PWs)   bands (ev):

   -71.8348 -38.5675 -38.5495 -38.5470   2.6979   4.9180  11.4445  13.1089
    14.3123

          k =-0.1179-0.3536 0.3536 (   734 PWs)   bands (ev):

   -71.8350 -38.5660 -38.5500 -38.5479   1.7771   6.1590  10.6199  14.2764
    15.5701

          k = 0.0000-0.2357 0.2357 (   732 PWs)   bands (ev):

   -71.8357 -38.5558 -38.5459 -38.5414  -0.2806  10.1116  11.2637  16.4494
    17.7674

          k = 0.4714 0.0000 0.0000 (   717 PWs)   bands (ev):

   -71.8349 -38.5501 -38.5398 -38.5398   1.2262  10.0005  11.2929  11.7890
    11.7890

          k =-0.1179-0.5893 0.5893 (   729 PWs)   bands (ev):

   -71.8345 -38.5656 -38.5529 -38.5479   3.2427   7.3934   7.9177  11.6244
    12.5641

          k =-0.0000-0.4714 0.4714 (   730 PWs)   bands (ev):

   -71.8345 -38.5616 -38.5563 -38.5530   4.1537   5.8726   7.0057  12.4506
    13.5887

          k =-0.7071 0.0000 0.0000 (   740 PWs)   bands (ev):

   -71.8344 -38.5713 -38.5618 -38.5618   4.4686   5.4211  10.5376  11.1229
    11.1229

          k =-0.2357-0.4714 0.7071 (   728 PWs)   bands (ev):

   -71.8348 -38.5594 -38.5518 -38.5449   1.9685   7.9865   9.1031  10.9019
    16.5074

          k =-0.1179-0.3536 0.5893 (   730 PWs)   bands (ev):

   -71.8345 -38.5638 -38.5547 -38.5526   4.5253   4.8789   8.8650   9.6256
    17.5639

          k =-0.7071 0.2357 0.0000 (   732 PWs)   bands (ev):

   -71.8344 -38.5651 -38.5639 -38.5500   5.1703   6.1207   7.2765   8.6270
    15.8179

     the Fermi energy is     4.7757 ev

!    total energy              =    -141.34851217 Ry
     total all-electron energy =      -400.618781 Ry
     estimated scf accuracy    <       0.00000015 Ry
     smearing contrib. (-TS)   =      -0.00053535 Ry
     internal energy E=F+TS    =    -141.34797681 Ry

     The total energy is F=E-TS. E is the sum of the following terms:
     one-electron contribution =    -108.99111954 Ry
     hartree contribution      =      52.13351659 Ry
     xc contribution           =     -17.47787409 Ry
     ewald contribution        =     -52.05685374 Ry
     one-center paw contrib.   =     -14.95564603 Ry

     convergence has been achieved in   4 iterations

     Forces acting on atoms (cartesian axes, Ry/au):

     atom    1 type  1   force =     0.00000000    0.00000000    0.00000000

     Total force =     0.000000     Total SCF correction =     0.000000


     Computing stress (Cartesian axis) and pressure

          total   stress  (Ry/bohr**3)                   (kbar)     P=     -264.50
  -0.00179805  -0.00000000   0.00000000         -264.50       -0.00        0.00
  -0.00000000  -0.00179805  -0.00000000           -0.00     -264.50       -0.00
   0.00000000  -0.00000000  -0.00179805            0.00       -0.00     -264.50


     Writing all to output data dir ./pwscf.save/ :
     XML data file, charge density, pseudopotentials, collected wavefunctions

     init_run     :      0.28s CPU      0.30s WALL (       1 calls)
     electrons    :      1.24s CPU      1.25s WALL (       1 calls)
     forces       :      0.03s CPU      0.03s WALL (       1 calls)
     stress       :      0.13s CPU      0.13s WALL (       1 calls)

     Called by init_run:
     wfcinit      :      0.06s CPU      0.06s WALL (       1 calls)
     potinit      :      0.07s CPU      0.08s WALL (       1 calls)
     hinit0       :      0.14s CPU      0.14s WALL (       1 calls)

     Called by electrons:
     c_bands      :      0.83s CPU      0.84s WALL (       5 calls)
     sum_band     :      0.17s CPU      0.18s WALL (       5 calls)
     v_of_rho     :      0.08s CPU      0.08s WALL (       5 calls)
     newd         :      0.04s CPU      0.04s WALL (       5 calls)
     PAW_pot      :      0.17s CPU      0.18s WALL (       5 calls)
     mix_rho      :      0.00s CPU      0.00s WALL (       5 calls)

     Called by c_bands:
     init_us_2    :      0.02s CPU      0.02s WALL (     208 calls)
     cegterg      :      0.82s CPU      0.83s WALL (      80 calls)

     Called by *egterg:
     cdiaghg      :      0.02s CPU      0.02s WALL (     357 calls)
     h_psi        :      0.70s CPU      0.71s WALL (     389 calls)
     s_psi        :      0.01s CPU      0.01s WALL (     389 calls)
     g_psi        :      0.00s CPU      0.00s WALL (     293 calls)

     Called by h_psi:
     h_psi:calbec :      0.02s CPU      0.02s WALL (     389 calls)
     vloc_psi     :      0.67s CPU      0.67s WALL (     389 calls)
                                        0.00s GPU  (     389 calls)
     add_vuspsi   :      0.01s CPU      0.01s WALL (     389 calls)

     General routines
     calbec       :      0.04s CPU      0.05s WALL (     741 calls)
     fft          :      0.04s CPU      0.04s WALL (      89 calls)
     ffts         :      0.00s CPU      0.00s WALL (      10 calls)
     fftw         :      0.73s CPU      0.74s WALL (    4860 calls)
     interpolate  :      0.00s CPU      0.00s WALL (       5 calls)

     Parallel routines

     PWSCF        :      1.77s CPU      1.81s WALL


   This run was terminated on:  15:55:20  15Mar2026            

=------------------------------------------------------------------------------=
   JOB DONE.
=------------------------------------------------------------------------------=
