
     Program PWSCF v.7.5 starts on 15Mar2026 at 16:10:40 

     This program is part of the open-source Quantum ESPRESSO suite
     for quantum simulation of materials; please cite
         "P. Giannozzi et al., J. Phys.:Condens. Matter 21 395502 (2009);
         "P. Giannozzi et al., J. Phys.:Condens. Matter 29 465901 (2017);
         "P. Giannozzi et al., J. Chem. Phys. 152 154105 (2020);
          URL http://www.quantum-espresso.org", 
     in publications or presentations arising from this work. More details at
     http://www.quantum-espresso.org/quote

     Parallel version (MPI), running on     1 processors

     MPI processes distributed on     1 nodes
     1325 MiB available memory on the printing compute node when the environment starts

     Reading input from espresso.pwi
Warning: card &CELL ignored
Warning: card &FCP ignored
Warning: card &RISM ignored

     Current dimensions of program PWSCF are:
     Max number of different atomic species (ntypx) = 10
     Max number of k-points (npk) =  40000
     Max angular momentum in pseudopotentials (lmaxx) =  4
     file Cr.pbe-spn-kjpaw_psl.1.0.0.UPF: wavefunction(s)  3S 3P 3D renormalized
     Message from routine setup:
     using ibrav=0 with symmetry is DISCOURAGED, use correct ibrav instead

     Subspace diagonalization in iterative solution of the eigenvalue problem:
     a serial algorithm will be used


     G-vector sticks info
     --------------------
     sticks:   dense  smooth     PW     G-vecs:    dense   smooth      PW
     Sum         571     283    129                 8685     3055     887

     Using Slab Decomposition



     bravais-lattice index     =            0
     lattice parameter (alat)  =       4.8894  a.u.
     unit-cell volume          =      89.9775 (a.u.)^3
     number of atoms/cell      =            1
     number of atomic types    =            1
     number of electrons       =        14.00
     number of Kohn-Sham states=           11
     kinetic-energy cutoff     =      40.0000  Ry
     charge density cutoff     =     320.0000  Ry
     scf convergence threshold =      1.0E-06
     mixing beta               =       0.7000
     number of iterations used =            8  plain     mixing
     Exchange-correlation= SLA  PW   PBX  PBC
                           (   1   4   3   4   0   0   0)

     celldm(1)=   4.889359  celldm(2)=   0.000000  celldm(3)=   0.000000
     celldm(4)=   0.000000  celldm(5)=   0.000000  celldm(6)=   0.000000

     crystal axes: (cart. coord. in units of alat)
               a(1) = (  -0.577350   0.577350   0.577350 )  
               a(2) = (   0.577350  -0.577350   0.577350 )  
               a(3) = (   0.577350   0.577350  -0.577350 )  

     reciprocal axes: (cart. coord. in units 2 pi/alat)
               b(1) = (  0.000000  0.866025  0.866025 )  
               b(2) = (  0.866025  0.000000  0.866025 )  
               b(3) = (  0.866025  0.866025  0.000000 )  


     PseudoPot. # 1 for Cr read from file:
     /home/kenobi/Workspaces/PHYS400/pseudopotentials/Cr.pbe-spn-kjpaw_psl.1.0.0.UPF
     MD5 check sum: 198f1a2427a48552563eee314eba32ba
     Pseudo is Projector augmented-wave + core cor, Zval = 14.0
     Generated using &quot;atomic&quot; code by A. Dal Corso  v.6.3
     Shape of augmentation charge: PSQ
     Using radial grid of 1183 points,  6 beta functions with: 
                l(1) =   0
                l(2) =   0
                l(3) =   1
                l(4) =   1
                l(5) =   2
                l(6) =   2
     Q(r) pseudized with 0 coefficients 


     atomic species   valence    mass     pseudopotential
     Cr               14.00    51.99610     Cr( 1.00)

     Starting magnetic structure 
     atomic species   magnetization
     Cr              0.000

     48 Sym. Ops., with inversion, found



   Cartesian axes

     site n.     atom                  positions (alat units)
         1        Cr     tau(   1) = (   0.0000000   0.0000000   0.0000000  )

     number of k points=    16  Marzari-Vanderbilt smearing, width (Ry)=  0.0200
                       cart. coord. in units 2pi/alat
        k(    1) = (   0.0000000   0.0000000   0.0000000), wk =   0.0046296
        k(    2) = (   0.1443376   0.1443376   0.0000000), wk =   0.0555556
        k(    3) = (   0.2886751   0.2886751   0.0000000), wk =   0.0555556
        k(    4) = (  -0.4330127  -0.4330127   0.0000000), wk =   0.0277778
        k(    5) = (   0.2886751   0.1443376   0.1443376), wk =   0.1111111
        k(    6) = (   0.4330127   0.2886751   0.1443376), wk =   0.2222222
        k(    7) = (   0.5773503   0.2886751   0.2886751), wk =   0.0370370
        k(    8) = (   0.2886751   0.2886751   0.2886751), wk =   0.0370370
        k(    9) = (   0.4330127   0.4330127   0.2886751), wk =   0.0555556
        k(   10) = (   0.0000000   0.0000000   0.2886751), wk =   0.0277778
        k(   11) = (  -0.0000000  -0.1443376   0.4330127), wk =   0.1111111
        k(   12) = (  -0.8660254  -0.2886751  -0.2886751), wk =   0.0555556
        k(   13) = (  -0.7216878  -0.1443376  -0.2886751), wk =   0.1111111
        k(   14) = (  -0.0000000  -0.0000000   0.5773503), wk =   0.0277778
        k(   15) = (  -0.8660254  -0.1443376  -0.1443376), wk =   0.0555556
        k(   16) = (  -0.8660254  -0.8660254  -0.8660254), wk =   0.0046296

     Dense  grid:     8685 G-vectors     FFT dimensions: (  27,  27,  27)

     Smooth grid:     3055 G-vectors     FFT dimensions: (  20,  20,  20)

     Estimated max dynamical RAM per process >      38.82 MB

     Check: negative core charge=   -0.000011
     Generating pointlists ...
     new r_m :   0.4125 (alat units)  2.0169 (a.u.) for type    1

     Initial potential from superposition of free atoms

     starting charge      13.9992, renormalised to      14.0000
     Starting wfcs are   10 randomized atomic wfcs +    1 random wfcs
     Checking if some PAW data can be deallocated... 

     total cpu time spent up to now is        0.9 secs

     Self-consistent Calculation

     iteration #  1     ecut=    40.00 Ry     beta= 0.70
     Davidson diagonalization with overlap
     ethr =  1.00E-02,  avg # of iterations =  3.1

     Threshold (ethr) on eigenvalues was too large:
     Diagonalizing with lowered threshold

     Davidson diagonalization with overlap
     ethr =  7.22E-04,  avg # of iterations =  1.4

     total cpu time spent up to now is        1.9 secs

     total energy              =    -248.13517524 Ry
     estimated scf accuracy    <       0.10539188 Ry

     total magnetization       =     0.00 Bohr mag/cell
     absolute magnetization    =     0.00 Bohr mag/cell

     iteration #  2     ecut=    40.00 Ry     beta= 0.70
     Davidson diagonalization with overlap
     ethr =  7.53E-04,  avg # of iterations =  2.9

     total cpu time spent up to now is        2.7 secs

     total energy              =    -248.15430836 Ry
     estimated scf accuracy    <       0.17815259 Ry

     total magnetization       =     0.00 Bohr mag/cell
     absolute magnetization    =     0.00 Bohr mag/cell

     iteration #  3     ecut=    40.00 Ry     beta= 0.70
     Davidson diagonalization with overlap
     ethr =  7.53E-04,  avg # of iterations =  2.0

     total cpu time spent up to now is        3.4 secs

     total energy              =    -248.18900974 Ry
     estimated scf accuracy    <       0.00029616 Ry

     total magnetization       =     0.00 Bohr mag/cell
     absolute magnetization    =     0.00 Bohr mag/cell

     iteration #  4     ecut=    40.00 Ry     beta= 0.70
     Davidson diagonalization with overlap
     ethr =  2.12E-06,  avg # of iterations =  4.3

     total cpu time spent up to now is        4.2 secs

     total energy              =    -248.18918723 Ry
     estimated scf accuracy    <       0.00027377 Ry

     total magnetization       =     0.00 Bohr mag/cell
     absolute magnetization    =     0.00 Bohr mag/cell

     iteration #  5     ecut=    40.00 Ry     beta= 0.70
     Davidson diagonalization with overlap
     ethr =  1.96E-06,  avg # of iterations =  2.0

     Magnetic moment per site  (integrated on atomic sphere of radius R)
     atom   1 (R=0.413)  charge= 12.3264  magn=  0.0002

     total cpu time spent up to now is        4.9 secs

     End of self-consistent calculation

 ------ SPIN UP ------------


          k = 0.0000 0.0000 0.0000 (   381 PWs)   bands (ev):

   -55.3940 -26.3087 -26.3087 -26.3087   9.1288  15.7608  15.7608  15.7608
    17.4796  17.4796  37.7065

          k = 0.1443 0.1443 0.0000 (   380 PWs)   bands (ev):

   -55.3649 -26.4519 -26.3535 -26.3028  10.1615  15.4168  15.6416  16.4152
    17.2187  17.5148  34.4877

          k = 0.2887 0.2887 0.0000 (   388 PWs)   bands (ev):

   -55.3068 -26.7451 -26.4594 -26.3022  12.2439  14.7821  15.6779  17.3287
    17.6438  17.9293  28.5309

          k =-0.4330-0.4330 0.0000 (   384 PWs)   bands (ev):

   -55.2774 -26.8852 -26.5027 -26.2934  12.7073  14.4881  17.3214  17.4555
    17.7428  18.8418  24.8234

          k = 0.2887 0.1443 0.1443 (   381 PWs)   bands (ev):

   -55.3213 -26.6494 -26.4136 -26.3347  11.8776  15.0378  15.1209  17.0604
    17.6467  17.8310  31.5624

          k = 0.4330 0.2887 0.1443 (   385 PWs)   bands (ev):

   -55.2775 -26.8131 -26.5255 -26.3462  13.2365  14.5919  15.4982  17.3451
    17.8940  19.9921  26.1736

          k = 0.5774 0.2887 0.2887 (   378 PWs)   bands (ev):

   -55.2626 -26.6937 -26.6937 -26.3740  14.0802  14.6917  14.6917  17.6781
    17.6781  23.9651  23.9651

          k = 0.2887 0.2887 0.2887 (   378 PWs)   bands (ev):

   -55.2877 -26.7688 -26.4200 -26.4200  13.7371  14.4853  14.4853  17.6332
    17.6332  20.0835  29.2159

          k = 0.4330 0.4330 0.2887 (   380 PWs)   bands (ev):

   -55.2709 -26.7290 -26.5637 -26.4345  13.9988  14.3342  15.1315  17.7011
    17.7795  22.7735  24.9977

          k = 0.0000 0.0000 0.2887 (   390 PWs)   bands (ev):

   -55.3383 -26.4812 -26.4136 -26.4136  11.0970  15.8155  15.8155  16.2563
    16.4084  17.9187  34.0902

          k =-0.0000-0.1443 0.4330 (   387 PWs)   bands (ev):

   -55.2840 -26.7196 -26.5039 -26.4111  12.9381  14.9908  15.4799  16.6758
    17.8001  18.6028  29.1424

          k =-0.8660-0.2887-0.2887 (   380 PWs)   bands (ev):

   -55.2565 -26.8356 -26.5445 -26.4006  13.3225  15.0702  15.2450  16.8625
    18.7631  20.6302  24.8521

          k =-0.7217-0.1443-0.2887 (   392 PWs)   bands (ev):

   -55.2465 -26.7725 -26.6414 -26.4563  13.9489  14.1554  15.4532  17.2348
    18.1404  21.5841  26.8586

          k =-0.0000-0.0000 0.5774 (   394 PWs)   bands (ev):

   -55.2383 -26.6908 -26.6107 -26.6107  13.5163  14.0001  16.9416  16.9417
    17.7903  20.4252  29.6401

          k =-0.8660-0.1443-0.1443 (   390 PWs)   bands (ev):

   -55.2152 -26.7555 -26.6618 -26.6173  13.4121  13.5104  17.1464  17.4458
    18.6041  23.8993  25.2216

          k =-0.8660-0.8660-0.8660 (   370 PWs)   bands (ev):

   -55.1937 -26.6983 -26.6983 -26.6983  12.9764  12.9764  18.5283  18.5283
    18.5283  25.9044  25.9044

 ------ SPIN DOWN ----------


          k = 0.0000 0.0000 0.0000 (   381 PWs)   bands (ev):

   -55.3935 -26.3082 -26.3082 -26.3082   9.1289  15.7614  15.7614  15.7614
    17.4797  17.4797  37.7065

          k = 0.1443 0.1443 0.0000 (   380 PWs)   bands (ev):

   -55.3644 -26.4514 -26.3531 -26.3024  10.1616  15.4173  15.6422  16.4158
    17.2188  17.5149  34.4879

          k = 0.2887 0.2887 0.0000 (   388 PWs)   bands (ev):

   -55.3063 -26.7446 -26.4589 -26.3017  12.2441  14.7826  15.6782  17.3290
    17.6439  17.9299  28.5311

          k =-0.4330-0.4330 0.0000 (   384 PWs)   bands (ev):

   -55.2769 -26.8848 -26.5022 -26.2929  12.7076  14.4887  17.3215  17.4558
    17.7429  18.8425  24.8237

          k = 0.2887 0.1443 0.1443 (   381 PWs)   bands (ev):

   -55.3208 -26.6489 -26.4131 -26.3342  11.8777  15.0382  15.1214  17.0607
    17.6471  17.8313  31.5625

          k = 0.4330 0.2887 0.1443 (   385 PWs)   bands (ev):

   -55.2770 -26.8126 -26.5250 -26.3457  13.2367  14.5924  15.4985  17.3454
    17.8942  19.9925  26.1738

          k = 0.5774 0.2887 0.2887 (   378 PWs)   bands (ev):

   -55.2621 -26.6933 -26.6933 -26.3735  14.0806  14.6919  14.6919  17.6784
    17.6784  23.9654  23.9654

          k = 0.2887 0.2887 0.2887 (   378 PWs)   bands (ev):

   -55.2871 -26.7683 -26.4195 -26.4195  13.7373  14.4858  14.4858  17.6334
    17.6334  20.0841  29.2161

          k = 0.4330 0.4330 0.2887 (   380 PWs)   bands (ev):

   -55.2704 -26.7286 -26.5632 -26.4340  13.9992  14.3347  15.1319  17.7013
    17.7796  22.7739  24.9980

          k = 0.0000 0.0000 0.2887 (   390 PWs)   bands (ev):

   -55.3378 -26.4807 -26.4131 -26.4131  11.0970  15.8161  15.8161  16.2564
    16.4090  17.9188  34.0902

          k =-0.0000-0.1443 0.4330 (   387 PWs)   bands (ev):

   -55.2835 -26.7191 -26.5034 -26.4107  12.9382  14.9909  15.4804  16.6762
    17.8008  18.6029  29.1427

          k =-0.8660-0.2887-0.2887 (   380 PWs)   bands (ev):

   -55.2560 -26.8351 -26.5441 -26.4001  13.3227  15.0703  15.2456  16.8628
    18.7638  20.6304  24.8524

          k =-0.7217-0.1443-0.2887 (   392 PWs)   bands (ev):

   -55.2460 -26.7721 -26.6409 -26.4558  13.9491  14.1555  15.4536  17.2353
    18.1410  21.5844  26.8585

          k =-0.0000-0.0000 0.5774 (   394 PWs)   bands (ev):

   -55.2378 -26.6903 -26.6102 -26.6102  13.5164  14.0002  16.9422  16.9422
    17.7909  20.4254  29.6404

          k =-0.8660-0.1443-0.1443 (   390 PWs)   bands (ev):

   -55.2147 -26.7551 -26.6613 -26.6168  13.4122  13.5104  17.1469  17.4464
    18.6047  23.8994  25.2218

          k =-0.8660-0.8660-0.8660 (   370 PWs)   bands (ev):

   -55.1932 -26.6979 -26.6979 -26.6979  12.9764  12.9764  18.5289  18.5289
    18.5289  25.9045  25.9045

     the Fermi energy is    16.5489 ev

!    total energy              =    -248.18923883 Ry
     total all-electron energy =     -2101.721917 Ry
     estimated scf accuracy    <       0.00000032 Ry
     smearing contrib. (-TS)   =      -0.00067882 Ry
     internal energy E=F+TS    =    -248.18856001 Ry

     The total energy is F=E-TS. E is the sum of the following terms:
     one-electron contribution =     -64.85156250 Ry
     hartree contribution      =      39.39912735 Ry
     xc contribution           =     -22.15779097 Ry
     ewald contribution        =    -126.34110447 Ry
     one-center paw contrib.   =     -74.23722942 Ry

     total magnetization       =     0.00 Bohr mag/cell
     absolute magnetization    =     0.00 Bohr mag/cell

     convergence has been achieved in   5 iterations

     Forces acting on atoms (cartesian axes, Ry/au):

     atom    1 type  1   force =     0.00000000    0.00000000    0.00000000

     Total force =     0.000000     Total SCF correction =     0.000000


     Computing stress (Cartesian axis) and pressure

          total   stress  (Ry/bohr**3)                   (kbar)     P=     -559.25
  -0.00380171  -0.00000000  -0.00000000         -559.25       -0.00       -0.00
  -0.00000000  -0.00380171  -0.00000000           -0.00     -559.25       -0.00
  -0.00000000  -0.00000000  -0.00380171           -0.00       -0.00     -559.25


     Writing all to output data dir ./pwscf.save/ :
     XML data file, charge density, pseudopotentials, collected wavefunctions

     init_run     :      0.76s CPU      0.82s WALL (       1 calls)
     electrons    :      3.73s CPU      3.94s WALL (       1 calls)
     forces       :      0.08s CPU      0.08s WALL (       1 calls)
     stress       :      0.32s CPU      0.32s WALL (       1 calls)

     Called by init_run:
     wfcinit      :      0.07s CPU      0.07s WALL (       1 calls)
     potinit      :      0.40s CPU      0.45s WALL (       1 calls)
     hinit0       :      0.26s CPU      0.26s WALL (       1 calls)

     Called by electrons:
     c_bands      :      1.23s CPU      1.24s WALL (       6 calls)
     sum_band     :      0.41s CPU      0.43s WALL (       6 calls)
     v_of_rho     :      0.10s CPU      0.10s WALL (       6 calls)
     newd         :      0.15s CPU      0.19s WALL (       6 calls)
     PAW_pot      :      2.23s CPU      2.43s WALL (       6 calls)
     mix_rho      :      0.01s CPU      0.01s WALL (       6 calls)

     Called by c_bands:
     init_us_2    :      0.03s CPU      0.03s WALL (     480 calls)
     cegterg      :      1.18s CPU      1.19s WALL (     192 calls)

     Called by *egterg:
     cdiaghg      :      0.07s CPU      0.07s WALL (     663 calls)
     h_psi        :      0.92s CPU      0.93s WALL (     727 calls)
     s_psi        :      0.04s CPU      0.04s WALL (     727 calls)
     g_psi        :      0.00s CPU      0.00s WALL (     503 calls)

     Called by h_psi:
     h_psi:calbec :      0.06s CPU      0.06s WALL (     727 calls)
     vloc_psi     :      0.81s CPU      0.82s WALL (     727 calls)
                                        0.00s GPU  (     727 calls)
     add_vuspsi   :      0.04s CPU      0.04s WALL (     727 calls)

     General routines
     calbec       :      0.14s CPU      0.14s WALL (    1463 calls)
     fft          :      0.05s CPU      0.05s WALL (     190 calls)
     ffts         :      0.00s CPU      0.00s WALL (      24 calls)
     fftw         :      0.88s CPU      0.89s WALL (   13488 calls)
     interpolate  :      0.01s CPU      0.01s WALL (      12 calls)

     Parallel routines

     PWSCF        :      5.02s CPU      5.29s WALL


   This run was terminated on:  16:10:45  15Mar2026            

=------------------------------------------------------------------------------=
   JOB DONE.
=------------------------------------------------------------------------------=
