
     Program PWSCF v.7.5 starts on 15Mar2026 at 15:55:11 

     This program is part of the open-source Quantum ESPRESSO suite
     for quantum simulation of materials; please cite
         "P. Giannozzi et al., J. Phys.:Condens. Matter 21 395502 (2009);
         "P. Giannozzi et al., J. Phys.:Condens. Matter 29 465901 (2017);
         "P. Giannozzi et al., J. Chem. Phys. 152 154105 (2020);
          URL http://www.quantum-espresso.org", 
     in publications or presentations arising from this work. More details at
     http://www.quantum-espresso.org/quote

     Parallel version (MPI), running on     1 processors

     MPI processes distributed on     1 nodes
     3364 MiB available memory on the printing compute node when the environment starts

     Reading input from espresso.pwi
Warning: card &CELL ignored
Warning: card &FCP ignored
Warning: card &RISM ignored

     Current dimensions of program PWSCF are:
     Max number of different atomic species (ntypx) = 10
     Max number of k-points (npk) =  40000
     Max angular momentum in pseudopotentials (lmaxx) =  4
     file Mg.pbe-spnl-kjpaw_psl.1.0.0.UPF: wavefunction(s)  2P renormalized
     Message from routine setup:
     using ibrav=0 with symmetry is DISCOURAGED, use correct ibrav instead

     Subspace diagonalization in iterative solution of the eigenvalue problem:
     a serial algorithm will be used


     G-vector sticks info
     --------------------
     sticks:   dense  smooth     PW     G-vecs:    dense   smooth      PW
     Sum         793     385    121                14649     5065     941

     Using Slab Decomposition



     bravais-lattice index     =            0
     lattice parameter (alat)  =       5.9851  a.u.
     unit-cell volume          =     151.6031 (a.u.)^3
     number of atoms/cell      =            1
     number of atomic types    =            1
     number of electrons       =        10.00
     number of Kohn-Sham states=            9
     kinetic-energy cutoff     =      40.0000  Ry
     charge density cutoff     =     320.0000  Ry
     scf convergence threshold =      1.0E-06
     mixing beta               =       0.7000
     number of iterations used =            8  plain     mixing
     Exchange-correlation= SLA  PW   PBX  PBC
                           (   1   4   3   4   0   0   0)

     celldm(1)=   5.985141  celldm(2)=   0.000000  celldm(3)=   0.000000
     celldm(4)=   0.000000  celldm(5)=   0.000000  celldm(6)=   0.000000

     crystal axes: (cart. coord. in units of alat)
               a(1) = (   0.000000   0.707107   0.707107 )  
               a(2) = (   0.707107   0.000000   0.707107 )  
               a(3) = (   0.707107   0.707107   0.000000 )  

     reciprocal axes: (cart. coord. in units 2 pi/alat)
               b(1) = ( -0.707107  0.707107  0.707107 )  
               b(2) = (  0.707107 -0.707107  0.707107 )  
               b(3) = (  0.707107  0.707107 -0.707107 )  


     PseudoPot. # 1 for Mg read from file:
     /home/kenobi/Workspaces/PHYS400/pseudopotentials/Mg.pbe-spnl-kjpaw_psl.1.0.0.UPF
     MD5 check sum: fda14e0d92a6a9a5ebed782e5a4b3067
     Pseudo is Projector augmented-wave + core cor, Zval = 10.0
     Generated using &quot;atomic&quot; code by A. Dal Corso  v.6.3
     Shape of augmentation charge: PSQ
     Using radial grid of 1129 points,  4 beta functions with: 
                l(1) =   0
                l(2) =   0
                l(3) =   1
                l(4) =   1
     Q(r) pseudized with 0 coefficients 


     atomic species   valence    mass     pseudopotential
     Mg               10.00    24.30500     Mg( 1.00)

     48 Sym. Ops., with inversion, found



   Cartesian axes

     site n.     atom                  positions (alat units)
         1        Mg     tau(   1) = (   0.0000000   0.0000000   0.0000000  )

     number of k points=    16  Marzari-Vanderbilt smearing, width (Ry)=  0.0200
                       cart. coord. in units 2pi/alat
        k(    1) = (   0.0000000   0.0000000   0.0000000), wk =   0.0092593
        k(    2) = (   0.1178511   0.1178511  -0.1178511), wk =   0.0740741
        k(    3) = (   0.2357023   0.2357023  -0.2357023), wk =   0.0740741
        k(    4) = (  -0.3535534  -0.3535534   0.3535534), wk =   0.0370370
        k(    5) = (   0.2357023   0.0000000   0.0000000), wk =   0.0555556
        k(    6) = (   0.3535534   0.1178511  -0.1178511), wk =   0.2222222
        k(    7) = (  -0.2357023  -0.4714045   0.4714045), wk =   0.2222222
        k(    8) = (  -0.1178511  -0.3535534   0.3535534), wk =   0.2222222
        k(    9) = (   0.0000000  -0.2357023   0.2357023), wk =   0.1111111
        k(   10) = (   0.4714045   0.0000000   0.0000000), wk =   0.0555556
        k(   11) = (  -0.1178511  -0.5892557   0.5892557), wk =   0.2222222
        k(   12) = (  -0.0000000  -0.4714045   0.4714045), wk =   0.1111111
        k(   13) = (  -0.7071068   0.0000000   0.0000000), wk =   0.0277778
        k(   14) = (  -0.2357023  -0.4714045   0.7071068), wk =   0.2222222
        k(   15) = (  -0.1178511  -0.3535534   0.5892557), wk =   0.2222222
        k(   16) = (  -0.7071068   0.2357023   0.0000000), wk =   0.1111111

     Dense  grid:    14649 G-vectors     FFT dimensions: (  36,  36,  36)

     Smooth grid:     5065 G-vectors     FFT dimensions: (  25,  25,  25)

     Estimated max dynamical RAM per process >      22.40 MB

     Check: negative core charge=   -0.000016

     Initial potential from superposition of free atoms

     starting charge       9.9991, renormalised to      10.0000
     Starting wfcs are    5 randomized atomic wfcs +    4 random wfcs
     Checking if some PAW data can be deallocated... 

     total cpu time spent up to now is        0.4 secs

     Self-consistent Calculation

     iteration #  1     ecut=    40.00 Ry     beta= 0.70
     Davidson diagonalization with overlap
     ethr =  1.00E-02,  avg # of iterations =  6.1

     Threshold (ethr) on eigenvalues was too large:
     Diagonalizing with lowered threshold

     Davidson diagonalization with overlap
     ethr =  5.81E-05,  avg # of iterations =  3.6

     total cpu time spent up to now is        0.9 secs

     total energy              =    -141.34999877 Ry
     estimated scf accuracy    <       0.00601333 Ry

     iteration #  2     ecut=    40.00 Ry     beta= 0.70
     Davidson diagonalization with overlap
     ethr =  6.01E-05,  avg # of iterations =  1.8

     total cpu time spent up to now is        1.1 secs

     total energy              =    -141.35054545 Ry
     estimated scf accuracy    <       0.00037577 Ry

     iteration #  3     ecut=    40.00 Ry     beta= 0.70
     Davidson diagonalization with overlap
     ethr =  3.76E-06,  avg # of iterations =  2.4

     total cpu time spent up to now is        1.3 secs

     total energy              =    -141.35057093 Ry
     estimated scf accuracy    <       0.00001543 Ry

     iteration #  4     ecut=    40.00 Ry     beta= 0.70
     Davidson diagonalization with overlap
     ethr =  1.54E-07,  avg # of iterations =  3.8

     total cpu time spent up to now is        1.6 secs

     End of self-consistent calculation

          k = 0.0000 0.0000 0.0000 (   645 PWs)   bands (ev):

   -70.7393 -37.4385 -37.4385 -37.4385  -1.3949  18.0344  18.0344  18.0344
    20.2064

          k = 0.1179 0.1179-0.1179 (   643 PWs)   bands (ev):

   -70.7385 -37.4518 -37.4352 -37.4352  -0.7687  13.2174  17.2558  17.2558
    19.6381

          k = 0.2357 0.2357-0.2357 (   646 PWs)   bands (ev):

   -70.7370 -37.4669 -37.4414 -37.4414   1.0695   8.1873  16.7810  16.7810
    19.1254

          k =-0.3536-0.3536 0.3536 (   628 PWs)   bands (ev):

   -70.7361 -37.4752 -37.4211 -37.4211   3.8295   4.3687  16.9276  16.9276
    17.9740

          k = 0.2357 0.0000 0.0000 (   653 PWs)   bands (ev):

   -70.7383 -37.4526 -37.4473 -37.4473  -0.5670  14.9178  15.4013  15.4013
    17.5017

          k = 0.3536 0.1179-0.1179 (   642 PWs)   bands (ev):

   -70.7370 -37.4538 -37.4435 -37.4433   0.8717  10.2147  14.5540  14.6253
    15.9919

          k =-0.2357-0.4714 0.4714 (   640 PWs)   bands (ev):

   -70.7359 -37.4774 -37.4434 -37.4266   3.4575   5.8823  12.8578  14.7447
    16.1148

          k =-0.1179-0.3536 0.3536 (   647 PWs)   bands (ev):

   -70.7362 -37.4741 -37.4505 -37.4375   2.4742   7.1987  12.0176  15.9719
    17.4325

          k = 0.0000-0.2357 0.2357 (   644 PWs)   bands (ev):

   -70.7375 -37.4550 -37.4502 -37.4352   0.2618  11.3663  12.7839  18.2753
    19.6533

          k = 0.4714 0.0000 0.0000 (   644 PWs)   bands (ev):

   -70.7362 -37.4648 -37.4461 -37.4461   1.8781  11.2656  12.4915  13.3424
    13.3424

          k =-0.1179-0.5893 0.5893 (   650 PWs)   bands (ev):

   -70.7355 -37.4800 -37.4561 -37.4423   4.0396   8.4173   9.1802  13.1768
    14.1476

          k =-0.0000-0.4714 0.4714 (   650 PWs)   bands (ev):

   -70.7355 -37.4701 -37.4675 -37.4388   5.0039   6.8351   8.2099  14.0530
    15.2825

          k =-0.7071 0.0000 0.0000 (   636 PWs)   bands (ev):

   -70.7351 -37.4736 -37.4385 -37.4385   5.3432   6.4367  11.6740  12.6604
    12.6604

          k =-0.2357-0.4714 0.7071 (   656 PWs)   bands (ev):

   -70.7360 -37.4791 -37.4602 -37.4483   2.6733   9.0914  10.3751  12.4470
    18.2682

          k =-0.1179-0.3536 0.5893 (   656 PWs)   bands (ev):

   -70.7355 -37.4759 -37.4668 -37.4492   5.3450   5.8777   9.9912  11.1870
    19.5810

          k =-0.7071 0.2357 0.0000 (   654 PWs)   bands (ev):

   -70.7352 -37.4768 -37.4583 -37.4546   6.0857   7.1102   8.3353  10.1256
    17.5428

     the Fermi energy is     5.7271 ev

!    total energy              =    -141.35057528 Ry
     total all-electron energy =      -400.620844 Ry
     estimated scf accuracy    <       0.00000018 Ry
     smearing contrib. (-TS)   =      -0.00003541 Ry
     internal energy E=F+TS    =    -141.35053987 Ry

     The total energy is F=E-TS. E is the sum of the following terms:
     one-electron contribution =    -105.49840970 Ry
     hartree contribution      =      50.78908577 Ry
     xc contribution           =     -17.51810783 Ry
     ewald contribution        =     -54.16726673 Ry
     one-center paw contrib.   =     -14.95584138 Ry

     convergence has been achieved in   4 iterations

     Forces acting on atoms (cartesian axes, Ry/au):

     atom    1 type  1   force =     0.00000000    0.00000000    0.00000000

     Total force =     0.000000     Total SCF correction =     0.000000


     Computing stress (Cartesian axis) and pressure

          total   stress  (Ry/bohr**3)                   (kbar)     P=     -257.89
  -0.00175309   0.00000000   0.00000000         -257.89        0.00        0.00
   0.00000000  -0.00175309  -0.00000000            0.00     -257.89       -0.00
  -0.00000000  -0.00000000  -0.00175309           -0.00       -0.00     -257.89


     Writing all to output data dir ./pwscf.save/ :
     XML data file, charge density, pseudopotentials, collected wavefunctions

     init_run     :      0.28s CPU      0.29s WALL (       1 calls)
     electrons    :      1.17s CPU      1.18s WALL (       1 calls)
     forces       :      0.03s CPU      0.03s WALL (       1 calls)
     stress       :      0.11s CPU      0.11s WALL (       1 calls)

     Called by init_run:
     wfcinit      :      0.05s CPU      0.05s WALL (       1 calls)
     potinit      :      0.07s CPU      0.08s WALL (       1 calls)
     hinit0       :      0.14s CPU      0.14s WALL (       1 calls)

     Called by electrons:
     c_bands      :      0.77s CPU      0.78s WALL (       5 calls)
     sum_band     :      0.16s CPU      0.16s WALL (       5 calls)
     v_of_rho     :      0.08s CPU      0.08s WALL (       5 calls)
     newd         :      0.04s CPU      0.04s WALL (       5 calls)
     PAW_pot      :      0.18s CPU      0.18s WALL (       5 calls)
     mix_rho      :      0.00s CPU      0.00s WALL (       5 calls)

     Called by c_bands:
     init_us_2    :      0.01s CPU      0.01s WALL (     208 calls)
     cegterg      :      0.76s CPU      0.76s WALL (      80 calls)

     Called by *egterg:
     cdiaghg      :      0.02s CPU      0.02s WALL (     346 calls)
     h_psi        :      0.66s CPU      0.66s WALL (     378 calls)
     s_psi        :      0.01s CPU      0.01s WALL (     378 calls)
     g_psi        :      0.00s CPU      0.00s WALL (     282 calls)

     Called by h_psi:
     h_psi:calbec :      0.02s CPU      0.02s WALL (     378 calls)
     vloc_psi     :      0.63s CPU      0.63s WALL (     378 calls)
                                        0.00s GPU  (     378 calls)
     add_vuspsi   :      0.01s CPU      0.01s WALL (     378 calls)

     General routines
     calbec       :      0.04s CPU      0.04s WALL (     730 calls)
     fft          :      0.04s CPU      0.04s WALL (      89 calls)
     ffts         :      0.00s CPU      0.00s WALL (      10 calls)
     fftw         :      0.69s CPU      0.69s WALL (    4822 calls)
     interpolate  :      0.00s CPU      0.00s WALL (       5 calls)

     Parallel routines

     PWSCF        :      1.69s CPU      1.71s WALL


   This run was terminated on:  15:55:12  15Mar2026            

=------------------------------------------------------------------------------=
   JOB DONE.
=------------------------------------------------------------------------------=
