
     Program PWSCF v.7.5 starts on 15Mar2026 at 16:10:19 

     This program is part of the open-source Quantum ESPRESSO suite
     for quantum simulation of materials; please cite
         "P. Giannozzi et al., J. Phys.:Condens. Matter 21 395502 (2009);
         "P. Giannozzi et al., J. Phys.:Condens. Matter 29 465901 (2017);
         "P. Giannozzi et al., J. Chem. Phys. 152 154105 (2020);
          URL http://www.quantum-espresso.org", 
     in publications or presentations arising from this work. More details at
     http://www.quantum-espresso.org/quote

     Parallel version (MPI), running on     1 processors

     MPI processes distributed on     1 nodes
     1364 MiB available memory on the printing compute node when the environment starts

     Reading input from espresso.pwi
Warning: card &CELL ignored
Warning: card &FCP ignored
Warning: card &RISM ignored

     Current dimensions of program PWSCF are:
     Max number of different atomic species (ntypx) = 10
     Max number of k-points (npk) =  40000
     Max angular momentum in pseudopotentials (lmaxx) =  4
     file Cr.pbe-spn-kjpaw_psl.1.0.0.UPF: wavefunction(s)  3S 3P 3D renormalized
     Message from routine setup:
     using ibrav=0 with symmetry is DISCOURAGED, use correct ibrav instead

     Subspace diagonalization in iterative solution of the eigenvalue problem:
     a serial algorithm will be used


     G-vector sticks info
     --------------------
     sticks:   dense  smooth     PW     G-vecs:    dense   smooth      PW
     Sum         535     265    117                 7803     2731     767

     Using Slab Decomposition



     bravais-lattice index     =            0
     lattice parameter (alat)  =       4.6989  a.u.
     unit-cell volume          =      79.8651 (a.u.)^3
     number of atoms/cell      =            1
     number of atomic types    =            1
     number of electrons       =        14.00
     number of Kohn-Sham states=           11
     kinetic-energy cutoff     =      40.0000  Ry
     charge density cutoff     =     320.0000  Ry
     scf convergence threshold =      1.0E-06
     mixing beta               =       0.7000
     number of iterations used =            8  plain     mixing
     Exchange-correlation= SLA  PW   PBX  PBC
                           (   1   4   3   4   0   0   0)

     celldm(1)=   4.698865  celldm(2)=   0.000000  celldm(3)=   0.000000
     celldm(4)=   0.000000  celldm(5)=   0.000000  celldm(6)=   0.000000

     crystal axes: (cart. coord. in units of alat)
               a(1) = (  -0.577350   0.577350   0.577350 )  
               a(2) = (   0.577350  -0.577350   0.577350 )  
               a(3) = (   0.577350   0.577350  -0.577350 )  

     reciprocal axes: (cart. coord. in units 2 pi/alat)
               b(1) = (  0.000000  0.866025  0.866025 )  
               b(2) = (  0.866025  0.000000  0.866025 )  
               b(3) = (  0.866025  0.866025  0.000000 )  


     PseudoPot. # 1 for Cr read from file:
     /home/kenobi/Workspaces/PHYS400/pseudopotentials/Cr.pbe-spn-kjpaw_psl.1.0.0.UPF
     MD5 check sum: 198f1a2427a48552563eee314eba32ba
     Pseudo is Projector augmented-wave + core cor, Zval = 14.0
     Generated using &quot;atomic&quot; code by A. Dal Corso  v.6.3
     Shape of augmentation charge: PSQ
     Using radial grid of 1183 points,  6 beta functions with: 
                l(1) =   0
                l(2) =   0
                l(3) =   1
                l(4) =   1
                l(5) =   2
                l(6) =   2
     Q(r) pseudized with 0 coefficients 


     atomic species   valence    mass     pseudopotential
     Cr               14.00    51.99610     Cr( 1.00)

     Starting magnetic structure 
     atomic species   magnetization
     Cr              0.000

     48 Sym. Ops., with inversion, found



   Cartesian axes

     site n.     atom                  positions (alat units)
         1        Cr     tau(   1) = (   0.0000000   0.0000000   0.0000000  )

     number of k points=    16  Marzari-Vanderbilt smearing, width (Ry)=  0.0200
                       cart. coord. in units 2pi/alat
        k(    1) = (   0.0000000   0.0000000   0.0000000), wk =   0.0046296
        k(    2) = (   0.1443376   0.1443376   0.0000000), wk =   0.0555556
        k(    3) = (   0.2886751   0.2886751   0.0000000), wk =   0.0555556
        k(    4) = (  -0.4330127  -0.4330127   0.0000000), wk =   0.0277778
        k(    5) = (   0.2886751   0.1443376   0.1443376), wk =   0.1111111
        k(    6) = (   0.4330127   0.2886751   0.1443376), wk =   0.2222222
        k(    7) = (   0.5773503   0.2886751   0.2886751), wk =   0.0370370
        k(    8) = (   0.2886751   0.2886751   0.2886751), wk =   0.0370370
        k(    9) = (   0.4330127   0.4330127   0.2886751), wk =   0.0555556
        k(   10) = (   0.0000000   0.0000000   0.2886751), wk =   0.0277778
        k(   11) = (  -0.0000000  -0.1443376   0.4330127), wk =   0.1111111
        k(   12) = (  -0.8660254  -0.2886751  -0.2886751), wk =   0.0555556
        k(   13) = (  -0.7216878  -0.1443376  -0.2886751), wk =   0.1111111
        k(   14) = (  -0.0000000  -0.0000000   0.5773503), wk =   0.0277778
        k(   15) = (  -0.8660254  -0.1443376  -0.1443376), wk =   0.0555556
        k(   16) = (  -0.8660254  -0.8660254  -0.8660254), wk =   0.0046296

     Dense  grid:     7803 G-vectors     FFT dimensions: (  27,  27,  27)

     Smooth grid:     2731 G-vectors     FFT dimensions: (  20,  20,  20)

     Estimated max dynamical RAM per process >      35.22 MB

     Check: negative core charge=   -0.000011
     Generating pointlists ...
     new r_m :   0.4125 (alat units)  1.9383 (a.u.) for type    1

     Initial potential from superposition of free atoms

     starting charge      13.9992, renormalised to      14.0000
     Starting wfcs are   10 randomized atomic wfcs +    1 random wfcs
     Checking if some PAW data can be deallocated... 

     total cpu time spent up to now is        1.0 secs

     Self-consistent Calculation

     iteration #  1     ecut=    40.00 Ry     beta= 0.70
     Davidson diagonalization with overlap
     ethr =  1.00E-02,  avg # of iterations =  3.1

     Threshold (ethr) on eigenvalues was too large:
     Diagonalizing with lowered threshold

     Davidson diagonalization with overlap
     ethr =  6.86E-04,  avg # of iterations =  1.5

     total cpu time spent up to now is        1.9 secs

     total energy              =    -248.15267061 Ry
     estimated scf accuracy    <       0.10023061 Ry

     total magnetization       =     0.00 Bohr mag/cell
     absolute magnetization    =     0.00 Bohr mag/cell

     iteration #  2     ecut=    40.00 Ry     beta= 0.70
     Davidson diagonalization with overlap
     ethr =  7.16E-04,  avg # of iterations =  2.9

     total cpu time spent up to now is        2.8 secs

     total energy              =    -248.17555816 Ry
     estimated scf accuracy    <       0.12240177 Ry

     total magnetization       =     0.00 Bohr mag/cell
     absolute magnetization    =     0.00 Bohr mag/cell

     iteration #  3     ecut=    40.00 Ry     beta= 0.70
     Davidson diagonalization with overlap
     ethr =  7.16E-04,  avg # of iterations =  2.0

     total cpu time spent up to now is        3.5 secs

     total energy              =    -248.20072027 Ry
     estimated scf accuracy    <       0.00024638 Ry

     total magnetization       =     0.00 Bohr mag/cell
     absolute magnetization    =     0.00 Bohr mag/cell

     iteration #  4     ecut=    40.00 Ry     beta= 0.70
     Davidson diagonalization with overlap
     ethr =  1.76E-06,  avg # of iterations =  3.9

     total cpu time spent up to now is        4.3 secs

     total energy              =    -248.20086260 Ry
     estimated scf accuracy    <       0.00013524 Ry

     total magnetization       =     0.00 Bohr mag/cell
     absolute magnetization    =     0.00 Bohr mag/cell

     iteration #  5     ecut=    40.00 Ry     beta= 0.70
     Davidson diagonalization with overlap
     ethr =  9.66E-07,  avg # of iterations =  2.0

     total cpu time spent up to now is        5.0 secs

     total energy              =    -248.20088253 Ry
     estimated scf accuracy    <       0.00000288 Ry

     total magnetization       =     0.00 Bohr mag/cell
     absolute magnetization    =     0.00 Bohr mag/cell

     iteration #  6     ecut=    40.00 Ry     beta= 0.70
     Davidson diagonalization with overlap
     ethr =  2.06E-08,  avg # of iterations =  3.4

     Magnetic moment per site  (integrated on atomic sphere of radius R)
     atom   1 (R=0.413)  charge= 12.2394  magn=  0.0001

     total cpu time spent up to now is        5.8 secs

     End of self-consistent calculation

 ------ SPIN UP ------------


          k = 0.0000 0.0000 0.0000 (   321 PWs)   bands (ev):

   -52.9149 -23.6452 -23.6452 -23.6452  11.1914  18.1340  18.1340  18.1340
    20.1438  20.1438  41.1874

          k = 0.1443 0.1443 0.0000 (   346 PWs)   bands (ev):

   -52.8690 -23.8975 -23.7418 -23.6792  12.3154  17.7202  17.9874  18.9034
    19.8233  20.1785  38.2922

          k = 0.2887 0.2887 0.0000 (   350 PWs)   bands (ev):

   -52.7745 -24.3180 -23.8824 -23.6851  14.3869  16.9698  18.1459  19.9746
    20.3396  20.6941  32.4144

          k =-0.4330-0.4330 0.0000 (   340 PWs)   bands (ev):

   -52.7263 -24.5087 -23.9434 -23.6805  14.6648  16.6254  20.0619  20.1309
    20.4668  21.7829  28.6309

          k = 0.2887 0.1443 0.1443 (   339 PWs)   bands (ev):

   -52.7979 -24.1675 -23.8228 -23.7231  14.1370  17.2687  17.3861  19.6399
    20.3555  20.5853  35.3837

          k = 0.4330 0.2887 0.1443 (   341 PWs)   bands (ev):

   -52.7265 -24.4071 -23.9938 -23.7392  15.3157  16.7590  17.9291  19.9918
    20.6574  23.0977  29.9593

          k = 0.5774 0.2887 0.2887 (   333 PWs)   bands (ev):

   -52.7024 -24.2438 -24.2438 -23.7682  16.1906  16.9413  16.9413  20.3942
    20.3942  27.4467  27.4467

          k = 0.2887 0.2887 0.2887 (   342 PWs)   bands (ev):

   -52.7431 -24.3381 -23.8682 -23.8682  16.0796  16.6469  16.6469  20.3313
    20.3313  23.2188  32.9387

          k = 0.4330 0.4330 0.2887 (   338 PWs)   bands (ev):

   -52.7154 -24.3035 -24.0520 -23.8839  16.1484  16.4843  17.5014  20.4171
    20.5104  26.1283  28.6792

          k = 0.0000 0.0000 0.2887 (   349 PWs)   bands (ev):

   -52.8257 -23.9461 -23.8166 -23.8166  13.3280  18.1953  18.1953  18.6518
    18.8884  20.6830  37.7612

          k =-0.0000-0.1443 0.4330 (   339 PWs)   bands (ev):

   -52.7377 -24.2669 -23.9479 -23.8271  15.1465  17.2157  17.7956  19.2009
    20.5372  21.5358  33.0527

          k =-0.8660-0.2887-0.2887 (   328 PWs)   bands (ev):

   -52.6932 -24.4362 -24.0077 -23.8047  15.3357  17.3742  17.5188  19.4220
    21.6879  23.7805  28.6232

          k =-0.7217-0.1443-0.2887 (   338 PWs)   bands (ev):

   -52.6771 -24.3392 -24.1497 -23.8732  16.0974  16.2273  17.7722  19.8688
    20.9497  24.8985  30.5994

          k =-0.0000-0.0000 0.5774 (   338 PWs)   bands (ev):

   -52.6645 -24.2131 -24.1011 -24.1011  15.6100  15.9965  19.5266  19.5266
    20.5189  23.6229  33.5837

          k =-0.8660-0.1443-0.1443 (   350 PWs)   bands (ev):

   -52.6281 -24.3347 -24.1894 -24.1065  15.3404  15.4804  19.7623  20.1232
    21.4921  27.3437  28.8683

          k =-0.8660-0.8660-0.8660 (   370 PWs)   bands (ev):

   -52.5957 -24.2795 -24.2795 -24.2795  14.8183  14.8183  21.3979  21.3979
    21.3979  29.4130  29.4130

 ------ SPIN DOWN ----------


          k = 0.0000 0.0000 0.0000 (   321 PWs)   bands (ev):

   -52.9147 -23.6450 -23.6450 -23.6450  11.1913  18.1342  18.1342  18.1342
    20.1439  20.1439  41.1874

          k = 0.1443 0.1443 0.0000 (   346 PWs)   bands (ev):

   -52.8688 -23.8973 -23.7416 -23.6790  12.3153  17.7204  17.9876  18.9036
    19.8234  20.1786  38.2922

          k = 0.2887 0.2887 0.0000 (   350 PWs)   bands (ev):

   -52.7743 -24.3178 -23.8822 -23.6849  14.3870  16.9700  18.1459  19.9748
    20.3397  20.6943  32.4145

          k =-0.4330-0.4330 0.0000 (   340 PWs)   bands (ev):

   -52.7261 -24.5085 -23.9432 -23.6803  14.6648  16.6255  20.0619  20.1311
    20.4669  21.7831  28.6310

          k = 0.2887 0.1443 0.1443 (   339 PWs)   bands (ev):

   -52.7977 -24.1673 -23.8226 -23.7229  14.1369  17.2688  17.3863  19.6400
    20.3557  20.5855  35.3838

          k = 0.4330 0.2887 0.1443 (   341 PWs)   bands (ev):

   -52.7263 -24.4070 -23.9936 -23.7391  15.3158  16.7592  17.9291  19.9920
    20.6575  23.0978  29.9594

          k = 0.5774 0.2887 0.2887 (   333 PWs)   bands (ev):

   -52.7022 -24.2436 -24.2436 -23.7680  16.1908  16.9413  16.9413  20.3943
    20.3943  27.4467  27.4467

          k = 0.2887 0.2887 0.2887 (   342 PWs)   bands (ev):

   -52.7429 -24.3379 -23.8680 -23.8680  16.0796  16.6470  16.6470  20.3314
    20.3314  23.2190  32.9387

          k = 0.4330 0.4330 0.2887 (   338 PWs)   bands (ev):

   -52.7152 -24.3033 -24.0518 -23.8837  16.1486  16.4845  17.5015  20.4172
    20.5105  26.1284  28.6793

          k = 0.0000 0.0000 0.2887 (   349 PWs)   bands (ev):

   -52.8255 -23.9459 -23.8164 -23.8164  13.3280  18.1955  18.1955  18.6518
    18.8886  20.6831  37.7611

          k =-0.0000-0.1443 0.4330 (   339 PWs)   bands (ev):

   -52.7375 -24.2667 -23.9477 -23.8269  15.1465  17.2158  17.7957  19.2011
    20.5375  21.5359  33.0528

          k =-0.8660-0.2887-0.2887 (   328 PWs)   bands (ev):

   -52.6930 -24.4360 -24.0075 -23.8046  15.3358  17.3742  17.5190  19.4222
    21.6882  23.7805  28.6233

          k =-0.7217-0.1443-0.2887 (   338 PWs)   bands (ev):

   -52.6769 -24.3390 -24.1495 -23.8730  16.0974  16.2274  17.7724  19.8690
    20.9499  24.8986  30.5995

          k =-0.0000-0.0000 0.5774 (   338 PWs)   bands (ev):

   -52.6643 -24.2129 -24.1010 -24.1010  15.6100  15.9965  19.5268  19.5268
    20.5192  23.6229  33.5838

          k =-0.8660-0.1443-0.1443 (   350 PWs)   bands (ev):

   -52.6279 -24.3345 -24.1892 -24.1063  15.3404  15.4804  19.7625  20.1234
    21.4923  27.3437  28.8684

          k =-0.8660-0.8660-0.8660 (   370 PWs)   bands (ev):

   -52.5955 -24.2793 -24.2793 -24.2793  14.8183  14.8183  21.3981  21.3981
    21.3981  29.4131  29.4131

     the Fermi energy is    19.0506 ev

!    total energy              =    -248.20088395 Ry
     total all-electron energy =     -2101.733562 Ry
     estimated scf accuracy    <       0.00000028 Ry
     smearing contrib. (-TS)   =      -0.00048299 Ry
     internal energy E=F+TS    =    -248.20040096 Ry

     The total energy is F=E-TS. E is the sum of the following terms:
     one-electron contribution =     -57.03988577 Ry
     hartree contribution      =      36.80636694 Ry
     xc contribution           =     -22.26071717 Ry
     ewald contribution        =    -131.46304113 Ry
     one-center paw contrib.   =     -74.24312383 Ry

     total magnetization       =     0.00 Bohr mag/cell
     absolute magnetization    =     0.00 Bohr mag/cell

     convergence has been achieved in   6 iterations

     Forces acting on atoms (cartesian axes, Ry/au):

     atom    1 type  1   force =     0.00000000    0.00000000    0.00000000

     Total force =     0.000000     Total SCF correction =     0.000000


     Computing stress (Cartesian axis) and pressure

          total   stress  (Ry/bohr**3)                   (kbar)     P=     -368.95
  -0.00250808   0.00000000   0.00000000         -368.95        0.00        0.00
   0.00000000  -0.00250808   0.00000000            0.00     -368.95        0.00
   0.00000000   0.00000000  -0.00250808            0.00        0.00     -368.95


     Writing all to output data dir ./pwscf.save/ :
     XML data file, charge density, pseudopotentials, collected wavefunctions

     init_run     :      0.77s CPU      0.82s WALL (       1 calls)
     electrons    :      4.52s CPU      4.79s WALL (       1 calls)
     forces       :      0.07s CPU      0.07s WALL (       1 calls)
     stress       :      0.33s CPU      0.33s WALL (       1 calls)

     Called by init_run:
     wfcinit      :      0.07s CPU      0.07s WALL (       1 calls)
     potinit      :      0.41s CPU      0.45s WALL (       1 calls)
     hinit0       :      0.26s CPU      0.26s WALL (       1 calls)

     Called by electrons:
     c_bands      :      1.43s CPU      1.45s WALL (       7 calls)
     sum_band     :      0.47s CPU      0.48s WALL (       7 calls)
     v_of_rho     :      0.12s CPU      0.12s WALL (       7 calls)
     newd         :      0.17s CPU      0.21s WALL (       7 calls)
     PAW_pot      :      2.72s CPU      2.96s WALL (       7 calls)
     mix_rho      :      0.01s CPU      0.01s WALL (       7 calls)

     Called by c_bands:
     init_us_2    :      0.03s CPU      0.04s WALL (     544 calls)
     cegterg      :      1.38s CPU      1.40s WALL (     224 calls)

     Called by *egterg:
     cdiaghg      :      0.08s CPU      0.08s WALL (     792 calls)
     h_psi        :      1.07s CPU      1.09s WALL (     856 calls)
     s_psi        :      0.05s CPU      0.05s WALL (     856 calls)
     g_psi        :      0.00s CPU      0.00s WALL (     600 calls)

     Called by h_psi:
     h_psi:calbec :      0.06s CPU      0.06s WALL (     856 calls)
     vloc_psi     :      0.96s CPU      0.97s WALL (     856 calls)
                                        0.00s GPU  (     856 calls)
     add_vuspsi   :      0.05s CPU      0.05s WALL (     856 calls)

     General routines
     calbec       :      0.14s CPU      0.14s WALL (    1624 calls)
     fft          :      0.06s CPU      0.06s WALL (     215 calls)
     ffts         :      0.00s CPU      0.00s WALL (      28 calls)
     fftw         :      1.04s CPU      1.06s WALL (   15596 calls)
     interpolate  :      0.01s CPU      0.01s WALL (      14 calls)

     Parallel routines

     PWSCF        :      5.83s CPU      6.17s WALL


   This run was terminated on:  16:10:26  15Mar2026            

=------------------------------------------------------------------------------=
   JOB DONE.
=------------------------------------------------------------------------------=
