
     Program PWSCF v.7.5 starts on 15Mar2026 at 15:54:22 

     This program is part of the open-source Quantum ESPRESSO suite
     for quantum simulation of materials; please cite
         "P. Giannozzi et al., J. Phys.:Condens. Matter 21 395502 (2009);
         "P. Giannozzi et al., J. Phys.:Condens. Matter 29 465901 (2017);
         "P. Giannozzi et al., J. Chem. Phys. 152 154105 (2020);
          URL http://www.quantum-espresso.org", 
     in publications or presentations arising from this work. More details at
     http://www.quantum-espresso.org/quote

     Parallel version (MPI), running on     1 processors

     MPI processes distributed on     1 nodes
     3373 MiB available memory on the printing compute node when the environment starts

     Reading input from espresso.pwi
Warning: card &CELL ignored
Warning: card &FCP ignored
Warning: card &RISM ignored

     Current dimensions of program PWSCF are:
     Max number of different atomic species (ntypx) = 10
     Max number of k-points (npk) =  40000
     Max angular momentum in pseudopotentials (lmaxx) =  4
     file Fe.pbe-spn-kjpaw_psl.1.0.0.UPF: wavefunction(s)  3P 3D renormalized
     Message from routine setup:
     using ibrav=0 with symmetry is DISCOURAGED, use correct ibrav instead

     Subspace diagonalization in iterative solution of the eigenvalue problem:
     a serial algorithm will be used


     G-vector sticks info
     --------------------
     sticks:   dense  smooth     PW     G-vecs:    dense   smooth      PW
     Sum         541     277    117                 8007     2899     791

     Using Slab Decomposition



     bravais-lattice index     =            0
     lattice parameter (alat)  =       4.7595  a.u.
     unit-cell volume          =      82.9983 (a.u.)^3
     number of atoms/cell      =            1
     number of atomic types    =            1
     number of electrons       =        16.00
     number of Kohn-Sham states=           12
     kinetic-energy cutoff     =      40.0000  Ry
     charge density cutoff     =     320.0000  Ry
     scf convergence threshold =      1.0E-06
     mixing beta               =       0.7000
     number of iterations used =            8  plain     mixing
     Exchange-correlation= SLA  PW   PBX  PBC
                           (   1   4   3   4   0   0   0)

     celldm(1)=   4.759526  celldm(2)=   0.000000  celldm(3)=   0.000000
     celldm(4)=   0.000000  celldm(5)=   0.000000  celldm(6)=   0.000000

     crystal axes: (cart. coord. in units of alat)
               a(1) = (  -0.577350   0.577350   0.577350 )  
               a(2) = (   0.577350  -0.577350   0.577350 )  
               a(3) = (   0.577350   0.577350  -0.577350 )  

     reciprocal axes: (cart. coord. in units 2 pi/alat)
               b(1) = (  0.000000  0.866025  0.866025 )  
               b(2) = (  0.866025  0.000000  0.866025 )  
               b(3) = (  0.866025  0.866025  0.000000 )  


     PseudoPot. # 1 for Fe read from file:
     /home/kenobi/Workspaces/PHYS400/pseudopotentials/Fe.pbe-spn-kjpaw_psl.1.0.0.UPF
     MD5 check sum: fc81f059e5c5069939230b1155715ae8
     Pseudo is Projector augmented-wave + core cor, Zval = 16.0
     Generated using &quot;atomic&quot; code by A. Dal Corso  v.6.3
     Shape of augmentation charge: PSQ
     Using radial grid of 1191 points,  6 beta functions with: 
                l(1) =   0
                l(2) =   0
                l(3) =   1
                l(4) =   1
                l(5) =   2
                l(6) =   2
     Q(r) pseudized with 0 coefficients 


     atomic species   valence    mass     pseudopotential
     Fe               16.00    55.84500     Fe( 1.00)

     Starting magnetic structure 
     atomic species   magnetization
     Fe              0.144

     48 Sym. Ops., with inversion, found



   Cartesian axes

     site n.     atom                  positions (alat units)
         1        Fe     tau(   1) = (   0.0000000   0.0000000   0.0000000  )

     number of k points=    16  Marzari-Vanderbilt smearing, width (Ry)=  0.0200
                       cart. coord. in units 2pi/alat
        k(    1) = (   0.0000000   0.0000000   0.0000000), wk =   0.0046296
        k(    2) = (   0.1443376   0.1443376   0.0000000), wk =   0.0555556
        k(    3) = (   0.2886751   0.2886751   0.0000000), wk =   0.0555556
        k(    4) = (  -0.4330127  -0.4330127   0.0000000), wk =   0.0277778
        k(    5) = (   0.2886751   0.1443376   0.1443376), wk =   0.1111111
        k(    6) = (   0.4330127   0.2886751   0.1443376), wk =   0.2222222
        k(    7) = (   0.5773503   0.2886751   0.2886751), wk =   0.0370370
        k(    8) = (   0.2886751   0.2886751   0.2886751), wk =   0.0370370
        k(    9) = (   0.4330127   0.4330127   0.2886751), wk =   0.0555556
        k(   10) = (   0.0000000   0.0000000   0.2886751), wk =   0.0277778
        k(   11) = (  -0.0000000  -0.1443376   0.4330127), wk =   0.1111111
        k(   12) = (  -0.8660254  -0.2886751  -0.2886751), wk =   0.0555556
        k(   13) = (  -0.7216878  -0.1443376  -0.2886751), wk =   0.1111111
        k(   14) = (  -0.0000000  -0.0000000   0.5773503), wk =   0.0277778
        k(   15) = (  -0.8660254  -0.1443376  -0.1443376), wk =   0.0555556
        k(   16) = (  -0.8660254  -0.8660254  -0.8660254), wk =   0.0046296

     Dense  grid:     8007 G-vectors     FFT dimensions: (  27,  27,  27)

     Smooth grid:     2899 G-vectors     FFT dimensions: (  20,  20,  20)

     Estimated max dynamical RAM per process >      36.26 MB

     Check: negative core charge=   -0.000009
     Generating pointlists ...
     new r_m :   0.4125 (alat units)  1.9633 (a.u.) for type    1

     Initial potential from superposition of free atoms

     starting charge      15.9996, renormalised to      16.0000
     Starting wfcs are   10 randomized atomic wfcs +    2 random wfcs
     Checking if some PAW data can be deallocated... 

     total cpu time spent up to now is        0.9 secs

     Self-consistent Calculation

     iteration #  1     ecut=    40.00 Ry     beta= 0.70
     Davidson diagonalization with overlap
     ethr =  1.00E-02,  avg # of iterations =  4.4

     Threshold (ethr) on eigenvalues was too large:
     Diagonalizing with lowered threshold

     Davidson diagonalization with overlap
     ethr =  3.28E-04,  avg # of iterations =  2.0

     negative rho (up, down):  0.000E+00 1.038E-04

     total cpu time spent up to now is        2.0 secs

     total energy              =    -329.01910145 Ry
     estimated scf accuracy    <       0.05531041 Ry

     total magnetization       =     2.24 Bohr mag/cell
     absolute magnetization    =     2.25 Bohr mag/cell

     iteration #  2     ecut=    40.00 Ry     beta= 0.70
     Davidson diagonalization with overlap
     ethr =  3.46E-04,  avg # of iterations =  2.8

     negative rho (up, down):  0.000E+00 1.176E-04

     total cpu time spent up to now is        2.8 secs

     total energy              =    -329.01873323 Ry
     estimated scf accuracy    <       0.17174148 Ry

     total magnetization       =     2.43 Bohr mag/cell
     absolute magnetization    =     2.48 Bohr mag/cell

     iteration #  3     ecut=    40.00 Ry     beta= 0.70
     Davidson diagonalization with overlap
     ethr =  3.46E-04,  avg # of iterations =  2.2

     negative rho (up, down):  0.000E+00 3.885E-04

     total cpu time spent up to now is        3.5 secs

     total energy              =    -329.04998600 Ry
     estimated scf accuracy    <       0.00115850 Ry

     total magnetization       =     2.28 Bohr mag/cell
     absolute magnetization    =     2.37 Bohr mag/cell

     iteration #  4     ecut=    40.00 Ry     beta= 0.70
     Davidson diagonalization with overlap
     ethr =  7.24E-06,  avg # of iterations =  2.8

     negative rho (up, down):  0.000E+00 4.214E-04

     total cpu time spent up to now is        4.2 secs

     total energy              =    -329.05060603 Ry
     estimated scf accuracy    <       0.00013421 Ry

     total magnetization       =     2.28 Bohr mag/cell
     absolute magnetization    =     2.42 Bohr mag/cell

     iteration #  5     ecut=    40.00 Ry     beta= 0.70
     Davidson diagonalization with overlap
     ethr =  8.39E-07,  avg # of iterations =  2.1

     negative rho (up, down):  0.000E+00 4.230E-04

     total cpu time spent up to now is        4.9 secs

     total energy              =    -329.05067793 Ry
     estimated scf accuracy    <       0.00003102 Ry

     total magnetization       =     2.29 Bohr mag/cell
     absolute magnetization    =     2.45 Bohr mag/cell

     iteration #  6     ecut=    40.00 Ry     beta= 0.70
     Davidson diagonalization with overlap
     ethr =  1.94E-07,  avg # of iterations =  2.1

     negative rho (up, down):  0.000E+00 4.289E-04

     total cpu time spent up to now is        5.6 secs

     total energy              =    -329.05068918 Ry
     estimated scf accuracy    <       0.00000407 Ry

     total magnetization       =     2.30 Bohr mag/cell
     absolute magnetization    =     2.46 Bohr mag/cell

     iteration #  7     ecut=    40.00 Ry     beta= 0.70
     Davidson diagonalization with overlap
     ethr =  2.54E-08,  avg # of iterations =  2.2

     negative rho (up, down):  0.000E+00 4.284E-04

     total cpu time spent up to now is        6.4 secs

     total energy              =    -329.05069260 Ry
     estimated scf accuracy    <       0.00000129 Ry

     total magnetization       =     2.30 Bohr mag/cell
     absolute magnetization    =     2.47 Bohr mag/cell

     iteration #  8     ecut=    40.00 Ry     beta= 0.70
     Davidson diagonalization with overlap
     ethr =  8.08E-09,  avg # of iterations =  1.3

     negative rho (up, down):  0.000E+00 4.288E-04

     Magnetic moment per site  (integrated on atomic sphere of radius R)
     atom   1 (R=0.413)  charge= 14.4524  magn=  2.3755

     total cpu time spent up to now is        7.1 secs

     End of self-consistent calculation

 ------ SPIN UP ------------


          k = 0.0000 0.0000 0.0000 (   369 PWs)   bands (ev):

   -71.7975 -37.5529 -37.5529 -37.5529   8.5512  14.4464  14.4464  14.4464
    15.4105  15.4105  40.3998  40.3998

          k = 0.1443 0.1443 0.0000 (   350 PWs)   bands (ev):

   -71.7799 -37.5763 -37.5408 -37.5047   9.6034  14.2507  14.4381  15.0919
    15.3877  15.6270  35.2288  38.5113

          k = 0.2887 0.2887 0.0000 (   354 PWs)   bands (ev):

   -71.7524 -37.7301 -37.5935 -37.5127  11.7253  13.7674  14.7711  15.5613
    15.6858  16.1893  27.8221  35.3024

          k =-0.4330-0.4330 0.0000 (   360 PWs)   bands (ev):

   -71.7392 -37.8167 -37.6340 -37.5145  12.1011  13.5074  15.6091  15.8012
    16.8082  17.0382  23.2717  34.0382

          k = 0.2887 0.1443 0.1443 (   359 PWs)   bands (ev):

   -71.7606 -37.7144 -37.5822 -37.5316  11.3460  13.9296  14.0562  15.3012
    15.7300  16.0993  31.5549  32.4286

          k = 0.4330 0.2887 0.1443 (   351 PWs)   bands (ev):

   -71.7375 -37.7513 -37.6245 -37.5253  12.5967  13.6380  14.5648  15.5984
    16.0435  18.5151  25.1286  29.9949

          k = 0.5774 0.2887 0.2887 (   351 PWs)   bands (ev):

   -71.7303 -37.7014 -37.7014 -37.5429  13.2193  13.8011  13.8011  15.9155
    15.9155  22.8864  22.8864  25.2709

          k = 0.2887 0.2887 0.2887 (   354 PWs)   bands (ev):

   -71.7442 -37.7569 -37.5769 -37.5769  13.1510  13.5509  13.5509  15.7019
    15.7019  18.4186  28.8978  28.8978

          k = 0.4330 0.4330 0.2887 (   344 PWs)   bands (ev):

   -71.7340 -37.7114 -37.6295 -37.5499  13.2351  13.5039  14.2283  15.8518
    15.9569  21.6611  23.8569  27.9748

          k = 0.0000 0.0000 0.2887 (   349 PWs)   bands (ev):

   -71.7663 -37.5949 -37.5497 -37.5497  10.5548  14.6179  14.6179  14.7417
    15.0927  15.9194  35.1487  36.2585

          k =-0.0000-0.1443 0.4330 (   351 PWs)   bands (ev):

   -71.7398 -37.6967 -37.6104 -37.5587  12.3761  13.9085  14.3792  15.1971
    16.1286  16.9468  28.5308  33.0130

          k =-0.8660-0.2887-0.2887 (   360 PWs)   bands (ev):

   -71.7286 -37.7884 -37.6670 -37.5619  12.5740  14.0699  14.1558  15.2483
    16.7900  19.5849  23.4754  31.6057

          k =-0.7217-0.1443-0.2887 (   358 PWs)   bands (ev):

   -71.7230 -37.7599 -37.6885 -37.5847  13.1412  13.1906  14.3293  15.7026
    16.3526  20.3058  25.9821  26.7949

          k =-0.0000-0.0000 0.5774 (   362 PWs)   bands (ev):

   -71.7193 -37.7019 -37.6877 -37.6877  12.7399  13.0001  15.5131  15.5131
    16.0832  19.1839  29.2586  29.2586

          k =-0.8660-0.1443-0.1443 (   354 PWs)   bands (ev):

   -71.7064 -37.7639 -37.6998 -37.6290  12.5678  12.7211  15.8030  15.9412
    16.6782  23.1856  24.4414  27.6526

          k =-0.8660-0.8660-0.8660 (   370 PWs)   bands (ev):

   -71.7004 -37.7673 -37.7673 -37.7673  12.1714  12.1714  16.5708  16.5708
    16.5708  25.8405  25.8405  25.8405

 ------ SPIN DOWN ----------


          k = 0.0000 0.0000 0.0000 (   369 PWs)   bands (ev):

   -68.9891 -34.7961 -34.7961 -34.7961   8.6236  16.5140  16.5140  16.5140
    18.2664  18.2664  40.0665  40.0665

          k = 0.1443 0.1443 0.0000 (   350 PWs)   bands (ev):

   -68.9714 -34.8299 -34.7876 -34.7483   9.6889  16.2539  16.4538  17.2134
    18.1408  18.4841  35.5547  38.4638

          k = 0.2887 0.2887 0.0000 (   354 PWs)   bands (ev):

   -68.9413 -35.0027 -34.8458 -34.7569  12.2205  15.6617  16.1723  18.1789
    18.4713  18.5766  28.6681  35.3000

          k =-0.4330-0.4330 0.0000 (   360 PWs)   bands (ev):

   -68.9267 -35.0991 -34.8889 -34.7582  13.4072  15.3559  17.0435  18.2721
    18.7206  19.2070  24.6817  33.9913

          k = 0.2887 0.1443 0.1443 (   359 PWs)   bands (ev):

   -68.9498 -34.9804 -34.8321 -34.7778  11.5551  15.8644  15.9292  17.9436
    18.2309  18.6176  32.1133  32.9455

          k = 0.4330 0.2887 0.1443 (   351 PWs)   bands (ev):

   -68.9254 -35.0290 -34.8817 -34.7722  13.7489  15.4379  15.8948  18.2096
    18.7585  20.2595  26.1638  30.5392

          k = 0.5774 0.2887 0.2887 (   351 PWs)   bands (ev):

   -68.9178 -34.9715 -34.9715 -34.7908  14.8469  15.3238  15.3238  18.5508
    18.5508  23.9783  23.9783  26.1475

          k = 0.2887 0.2887 0.2887 (   354 PWs)   bands (ev):

   -68.9321 -35.0304 -34.8290 -34.8290  13.7210  15.2822  15.2822  18.5470
    18.5470  20.2779  29.5331  29.5333

          k = 0.4330 0.4330 0.2887 (   344 PWs)   bands (ev):

   -68.9222 -34.9838 -34.8902 -34.8033  14.6526  15.1464  15.5018  18.6896
    18.8817  22.7729  24.9535  28.6227

          k = 0.0000 0.0000 0.2887 (   349 PWs)   bands (ev):

   -68.9567 -34.8513 -34.7992 -34.7992  10.6776  16.6182  16.6182  17.2232
    17.3086  18.7926  35.3944  36.7691

          k =-0.0000-0.1443 0.4330 (   351 PWs)   bands (ev):

   -68.9279 -34.9677 -34.8661 -34.8097  12.9897  15.8999  16.3192  17.4570
    18.3938  19.3079  29.3199  33.5995

          k =-0.8660-0.2887-0.2887 (   360 PWs)   bands (ev):

   -68.9150 -35.0671 -34.9258 -34.8120  14.0806  15.6841  16.0614  17.6282
    19.1804  20.8182  24.7499  32.1339

          k =-0.7217-0.1443-0.2887 (   358 PWs)   bands (ev):

   -68.9090 -35.0336 -34.9533 -34.8375  14.5713  15.0888  16.2223  17.9472
    18.7028  21.6635  26.8870  27.5010

          k =-0.0000-0.0000 0.5774 (   362 PWs)   bands (ev):

   -68.9046 -34.9700 -34.9502 -34.9502  14.0979  15.0835  17.5690  17.5690
    18.3650  20.5910  29.7895  29.7895

          k =-0.8660-0.1443-0.1443 (   354 PWs)   bands (ev):

   -68.8911 -35.0353 -34.9659 -34.8928  14.4555  14.5289  17.9080  18.0626
    19.0523  23.9363  25.2048  28.0707

          k =-0.8660-0.8660-0.8660 (   370 PWs)   bands (ev):

   -68.8832 -35.0361 -35.0361 -35.0361  14.0603  14.0603  18.9369  18.9369
    18.9369  26.0431  26.0431  26.0431

     the Fermi energy is    16.5584 ev

!    total energy              =    -329.05069271 Ry
     total all-electron energy =     -2545.347226 Ry
     estimated scf accuracy    <       0.00000008 Ry
     smearing contrib. (-TS)   =       0.00255168 Ry
     internal energy E=F+TS    =    -329.05324438 Ry

     The total energy is F=E-TS. E is the sum of the following terms:
     one-electron contribution =    -116.45142624 Ry
     hartree contribution      =      67.35795527 Ry
     xc contribution           =     -27.69501216 Ry
     ewald contribution        =    -169.51837799 Ry
     one-center paw contrib.   =     -82.74638326 Ry

     total magnetization       =     2.30 Bohr mag/cell
     absolute magnetization    =     2.47 Bohr mag/cell

     convergence has been achieved in   8 iterations

     negative rho (up, down):  0.000E+00 4.288E-04

     Forces acting on atoms (cartesian axes, Ry/au):

     atom    1 type  1   force =     0.00000000    0.00000000    0.00000000

     Total force =     0.000000     Total SCF correction =     0.000000


     Computing stress (Cartesian axis) and pressure


     negative rho (up, down):  0.000E+00 4.288E-04
          total   stress  (Ry/bohr**3)                   (kbar)     P=    -2641.73
  -0.01795813  -0.00000000  -0.00000000        -2641.73       -0.00       -0.00
   0.00000000  -0.01795813   0.00000000            0.00    -2641.73        0.00
   0.00000000   0.00000000  -0.01795813            0.00        0.00    -2641.73


     Writing all to output data dir ./pwscf.save/ :
     XML data file, charge density, pseudopotentials, collected wavefunctions

     init_run     :      0.77s CPU      0.83s WALL (       1 calls)
     electrons    :      5.80s CPU      6.11s WALL (       1 calls)
     forces       :      0.07s CPU      0.07s WALL (       1 calls)
     stress       :      0.31s CPU      0.31s WALL (       1 calls)

     Called by init_run:
     wfcinit      :      0.08s CPU      0.08s WALL (       1 calls)
     potinit      :      0.41s CPU      0.45s WALL (       1 calls)
     hinit0       :      0.26s CPU      0.26s WALL (       1 calls)

     Called by electrons:
     c_bands      :      1.85s CPU      1.88s WALL (       9 calls)
     sum_band     :      0.62s CPU      0.62s WALL (       9 calls)
     v_of_rho     :      0.14s CPU      0.15s WALL (       9 calls)
     newd         :      0.22s CPU      0.27s WALL (       9 calls)
     PAW_pot      :      3.35s CPU      3.63s WALL (       9 calls)
     mix_rho      :      0.01s CPU      0.01s WALL (       9 calls)

     Called by c_bands:
     init_us_2    :      0.04s CPU      0.04s WALL (     672 calls)
     cegterg      :      1.79s CPU      1.81s WALL (     288 calls)

     Called by *egterg:
     cdiaghg      :      0.11s CPU      0.11s WALL (     955 calls)
     h_psi        :      1.36s CPU      1.37s WALL (    1019 calls)
     s_psi        :      0.06s CPU      0.06s WALL (    1019 calls)
     g_psi        :      0.01s CPU      0.01s WALL (     699 calls)

     Called by h_psi:
     h_psi:calbec :      0.08s CPU      0.08s WALL (    1019 calls)
     vloc_psi     :      1.21s CPU      1.22s WALL (    1019 calls)
                                        0.00s GPU  (    1019 calls)
     add_vuspsi   :      0.06s CPU      0.06s WALL (    1019 calls)

     General routines
     calbec       :      0.17s CPU      0.18s WALL (    1851 calls)
     fft          :      0.07s CPU      0.07s WALL (     265 calls)
     ffts         :      0.00s CPU      0.00s WALL (      36 calls)
     fftw         :      1.33s CPU      1.35s WALL (   20752 calls)
     interpolate  :      0.01s CPU      0.01s WALL (      18 calls)

     Parallel routines

     PWSCF        :      7.08s CPU      7.45s WALL


   This run was terminated on:  15:54:30  15Mar2026            

=------------------------------------------------------------------------------=
   JOB DONE.
=------------------------------------------------------------------------------=
