
     Program PWSCF v.7.5 starts on 15Mar2026 at 15:52: 7 

     This program is part of the open-source Quantum ESPRESSO suite
     for quantum simulation of materials; please cite
         "P. Giannozzi et al., J. Phys.:Condens. Matter 21 395502 (2009);
         "P. Giannozzi et al., J. Phys.:Condens. Matter 29 465901 (2017);
         "P. Giannozzi et al., J. Chem. Phys. 152 154105 (2020);
          URL http://www.quantum-espresso.org", 
     in publications or presentations arising from this work. More details at
     http://www.quantum-espresso.org/quote

     Parallel version (MPI), running on     1 processors

     MPI processes distributed on     1 nodes
     3475 MiB available memory on the printing compute node when the environment starts

     Reading input from espresso.pwi
Warning: card &CELL ignored
Warning: card &FCP ignored
Warning: card &RISM ignored

     Current dimensions of program PWSCF are:
     Max number of different atomic species (ntypx) = 10
     Max number of k-points (npk) =  40000
     Max angular momentum in pseudopotentials (lmaxx) =  4
     Message from routine setup:
     using ibrav=0 with symmetry is DISCOURAGED, use correct ibrav instead

     Subspace diagonalization in iterative solution of the eigenvalue problem:
     a serial algorithm will be used


     G-vector sticks info
     --------------------
     sticks:   dense  smooth     PW     G-vecs:    dense   smooth      PW
     Sum         649     313    109                11017     3839     749

     Using Slab Decomposition



     bravais-lattice index     =            0
     lattice parameter (alat)  =       5.4519  a.u.
     unit-cell volume          =     114.5822 (a.u.)^3
     number of atoms/cell      =            1
     number of atomic types    =            1
     number of electrons       =        11.00
     number of Kohn-Sham states=           10
     kinetic-energy cutoff     =      40.0000  Ry
     charge density cutoff     =     320.0000  Ry
     scf convergence threshold =      1.0E-06
     mixing beta               =       0.7000
     number of iterations used =            8  plain     mixing
     Exchange-correlation= LDA
                           (   1   1   0   0   0   0   0)

     celldm(1)=   5.451852  celldm(2)=   0.000000  celldm(3)=   0.000000
     celldm(4)=   0.000000  celldm(5)=   0.000000  celldm(6)=   0.000000

     crystal axes: (cart. coord. in units of alat)
               a(1) = (   0.000000   0.707107   0.707107 )  
               a(2) = (   0.707107   0.000000   0.707107 )  
               a(3) = (   0.707107   0.707107   0.000000 )  

     reciprocal axes: (cart. coord. in units 2 pi/alat)
               b(1) = ( -0.707107  0.707107  0.707107 )  
               b(2) = (  0.707107 -0.707107  0.707107 )  
               b(3) = (  0.707107  0.707107 -0.707107 )  


     PseudoPot. # 1 for Au read from file:
     /home/kenobi/Workspaces/PHYS400/pseudopotentials/Au.pz-rrkjus_aewfc.UPF
     MD5 check sum: a6a73ca633fd0b71782ee3cea1e65e2b
     Pseudo is Ultrasoft, Zval = 11.0
     Generated using "atomic" code by A. Dal Corso  (Quantum ESPRESSO distribution)
     Using radial grid of 1279 points,  3 beta functions with: 
                l(1) =   1
                l(2) =   2
                l(3) =   2
     Q(r) pseudized with 0 coefficients 


     atomic species   valence    mass     pseudopotential
     Au               11.00   196.96657     Au( 1.00)

     48 Sym. Ops., with inversion, found



   Cartesian axes

     site n.     atom                  positions (alat units)
         1        Au     tau(   1) = (   0.0000000   0.0000000   0.0000000  )

     number of k points=    16  Marzari-Vanderbilt smearing, width (Ry)=  0.0200
                       cart. coord. in units 2pi/alat
        k(    1) = (   0.0000000   0.0000000   0.0000000), wk =   0.0092593
        k(    2) = (   0.1178511   0.1178511  -0.1178511), wk =   0.0740741
        k(    3) = (   0.2357023   0.2357023  -0.2357023), wk =   0.0740741
        k(    4) = (  -0.3535534  -0.3535534   0.3535534), wk =   0.0370370
        k(    5) = (   0.2357023   0.0000000   0.0000000), wk =   0.0555556
        k(    6) = (   0.3535534   0.1178511  -0.1178511), wk =   0.2222222
        k(    7) = (  -0.2357023  -0.4714045   0.4714045), wk =   0.2222222
        k(    8) = (  -0.1178511  -0.3535534   0.3535534), wk =   0.2222222
        k(    9) = (   0.0000000  -0.2357023   0.2357023), wk =   0.1111111
        k(   10) = (   0.4714045   0.0000000   0.0000000), wk =   0.0555556
        k(   11) = (  -0.1178511  -0.5892557   0.5892557), wk =   0.2222222
        k(   12) = (  -0.0000000  -0.4714045   0.4714045), wk =   0.1111111
        k(   13) = (  -0.7071068   0.0000000   0.0000000), wk =   0.0277778
        k(   14) = (  -0.2357023  -0.4714045   0.7071068), wk =   0.2222222
        k(   15) = (  -0.1178511  -0.3535534   0.5892557), wk =   0.2222222
        k(   16) = (  -0.7071068   0.2357023   0.0000000), wk =   0.1111111

     Dense  grid:    11017 G-vectors     FFT dimensions: (  32,  32,  32)

     Smooth grid:     3839 G-vectors     FFT dimensions: (  24,  24,  24)

     Estimated max dynamical RAM per process >      28.90 MB

     Initial potential from superposition of free atoms

     starting charge      10.9999, renormalised to      11.0000
     Starting wfcs are    9 randomized atomic wfcs +    1 random wfcs

     total cpu time spent up to now is        0.4 secs

     Self-consistent Calculation

     iteration #  1     ecut=    40.00 Ry     beta= 0.70
     Davidson diagonalization with overlap
     ethr =  1.00E-02,  avg # of iterations =  5.5

     Threshold (ethr) on eigenvalues was too large:
     Diagonalizing with lowered threshold

     Davidson diagonalization with overlap
     ethr =  6.62E-04,  avg # of iterations =  1.5

     total cpu time spent up to now is        0.7 secs

     total energy              =     -66.81431862 Ry
     estimated scf accuracy    <       0.07450308 Ry

     iteration #  2     ecut=    40.00 Ry     beta= 0.70
     Davidson diagonalization with overlap
     ethr =  6.77E-04,  avg # of iterations =  2.2

     total cpu time spent up to now is        0.8 secs

     total energy              =     -66.83655630 Ry
     estimated scf accuracy    <       0.02252227 Ry

     iteration #  3     ecut=    40.00 Ry     beta= 0.70
     Davidson diagonalization with overlap
     ethr =  2.05E-04,  avg # of iterations =  2.0

     total cpu time spent up to now is        1.0 secs

     total energy              =     -66.84087412 Ry
     estimated scf accuracy    <       0.00002340 Ry

     iteration #  4     ecut=    40.00 Ry     beta= 0.70
     Davidson diagonalization with overlap
     ethr =  2.13E-07,  avg # of iterations =  3.8

     total cpu time spent up to now is        1.2 secs

     total energy              =     -66.84089034 Ry
     estimated scf accuracy    <       0.00000269 Ry

     iteration #  5     ecut=    40.00 Ry     beta= 0.70
     Davidson diagonalization with overlap
     ethr =  2.44E-08,  avg # of iterations =  1.0

     total cpu time spent up to now is        1.3 secs

     End of self-consistent calculation

          k = 0.0000 0.0000 0.0000 (   531 PWs)   bands (ev):

     5.6748  10.9533  10.9533  10.9533  12.4825  12.4825  32.1310  35.5932
    35.5932  35.5932

          k = 0.1179 0.1179-0.1179 (   507 PWs)   bands (ev):

     6.5971  10.7368  11.2041  11.2041  12.4358  12.4358  30.3761  33.0355
    36.0377  36.0377

          k = 0.2357 0.2357-0.2357 (   492 PWs)   bands (ev):

     8.1148  11.1076  11.1076  11.6707  13.1124  13.1124  23.5588  32.0865
    34.9520  34.9520

          k =-0.3536-0.3536 0.3536 (   476 PWs)   bands (ev):

     8.2834  10.9142  10.9142  13.7013  13.7013  14.6819  18.6724  31.2093
    33.6064  33.6064

          k = 0.2357 0.0000 0.0000 (   504 PWs)   bands (ev):

     6.9167  10.3648  11.5356  11.5356  11.8888  12.7591  33.0419  33.1735
    33.1735  33.1841

          k = 0.3536 0.1179-0.1179 (   491 PWs)   bands (ev):

     8.4548  10.1588  11.0882  11.7742  13.0851  13.3065  26.2465  31.4191
    32.3580  33.5223

          k =-0.2357-0.4714 0.4714 (   484 PWs)   bands (ev):

     8.9026  10.5506  11.5013  11.6134  13.7448  16.3146  19.7863  29.6806
    31.3431  32.5238

          k =-0.1179-0.3536 0.3536 (   495 PWs)   bands (ev):

     8.9857  10.6808  11.3763  11.4792  12.9562  15.3324  21.9646  28.5101
    32.7961  34.0116

          k = 0.0000-0.2357 0.2357 (   491 PWs)   bands (ev):

     7.9358  10.3846  11.2270  11.7182  11.9224  13.4109  27.9899  29.8263
    35.0819  36.1273

          k = 0.4714 0.0000 0.0000 (   480 PWs)   bands (ev):

     8.7501   9.3345  12.6191  13.0121  13.0121  13.3430  27.7616  28.4094
    28.4094  32.4424

          k =-0.1179-0.5893 0.5893 (   482 PWs)   bands (ev):

     8.9758   9.4160  12.2182  12.8918  13.8508  16.7908  22.2768  25.4474
    27.7779  33.6270

          k =-0.0000-0.4714 0.4714 (   498 PWs)   bands (ev):

     9.4690  10.2822  11.1574  12.3790  13.2656  18.1084  22.1265  22.8196
    30.2296  33.3488

          k =-0.7071 0.0000 0.0000 (   468 PWs)   bands (ev):

     8.5506   8.8754  13.6524  14.0297  14.0297  16.6958  21.3114  26.0611
    26.0611  32.8023

          k =-0.2357-0.4714 0.7071 (   491 PWs)   bands (ev):

     9.6299   9.8931  10.6430  12.6453  13.0019  15.5539  24.3026  26.0289
    29.3915  36.6177

          k =-0.1179-0.3536 0.5893 (   482 PWs)   bands (ev):

     9.8667   9.9731  10.8847  12.2373  13.6176  18.9725  19.8194  25.5238
    27.5378  36.1143

          k =-0.7071 0.2357 0.0000 (   490 PWs)   bands (ev):

     9.3022   9.5978  11.6848  12.7685  14.0311  19.8827  20.5782  23.9981
    25.2954  37.4106

     the Fermi energy is    15.6214 ev

!    total energy              =     -66.84089053 Ry
     estimated scf accuracy    <       0.00000005 Ry
     smearing contrib. (-TS)   =      -0.00010447 Ry
     internal energy E=F+TS    =     -66.84078606 Ry

     The total energy is F=E-TS. E is the sum of the following terms:
     one-electron contribution =       8.21804516 Ry
     hartree contribution      =       7.33456432 Ry
     xc contribution           =     -10.43978096 Ry
     ewald contribution        =     -71.95361458 Ry

     convergence has been achieved in   5 iterations

     Forces acting on atoms (cartesian axes, Ry/au):

     atom    1 type  1   force =     0.00000000    0.00000000    0.00000000

     Total force =     0.000000     Total SCF correction =     0.000000


     Computing stress (Cartesian axis) and pressure

          total   stress  (Ry/bohr**3)                   (kbar)     P=      -19.18
  -0.00013041   0.00000000   0.00000000          -19.18        0.00        0.00
   0.00000000  -0.00013041  -0.00000000            0.00      -19.18       -0.00
  -0.00000000  -0.00000000  -0.00013041           -0.00       -0.00      -19.18


     Writing all to output data dir ./pwscf.save/ :
     XML data file, charge density, pseudopotentials, collected wavefunctions

     init_run     :      0.28s CPU      0.29s WALL (       1 calls)
     electrons    :      0.93s CPU      0.95s WALL (       1 calls)
     forces       :      0.03s CPU      0.03s WALL (       1 calls)
     stress       :      0.22s CPU      0.22s WALL (       1 calls)

     Called by init_run:
     wfcinit      :      0.04s CPU      0.04s WALL (       1 calls)
     potinit      :      0.02s CPU      0.02s WALL (       1 calls)
     hinit0       :      0.19s CPU      0.19s WALL (       1 calls)

     Called by electrons:
     c_bands      :      0.62s CPU      0.63s WALL (       6 calls)
     sum_band     :      0.20s CPU      0.21s WALL (       6 calls)
     v_of_rho     :      0.01s CPU      0.01s WALL (       6 calls)
     newd         :      0.10s CPU      0.11s WALL (       6 calls)
     mix_rho      :      0.00s CPU      0.00s WALL (       6 calls)

     Called by c_bands:
     init_us_2    :      0.02s CPU      0.02s WALL (     240 calls)
     cegterg      :      0.60s CPU      0.61s WALL (      96 calls)

     Called by *egterg:
     cdiaghg      :      0.03s CPU      0.03s WALL (     336 calls)
     h_psi        :      0.49s CPU      0.49s WALL (     368 calls)
     s_psi        :      0.02s CPU      0.02s WALL (     368 calls)
     g_psi        :      0.00s CPU      0.00s WALL (     256 calls)

     Called by h_psi:
     h_psi:calbec :      0.02s CPU      0.02s WALL (     368 calls)
     vloc_psi     :      0.44s CPU      0.45s WALL (     368 calls)
                                        0.00s GPU  (     368 calls)
     add_vuspsi   :      0.02s CPU      0.02s WALL (     368 calls)

     General routines
     calbec       :      0.06s CPU      0.06s WALL (     736 calls)
     fft          :      0.01s CPU      0.01s WALL (      40 calls)
     ffts         :      0.00s CPU      0.00s WALL (      12 calls)
     fftw         :      0.47s CPU      0.48s WALL (    5990 calls)
     interpolate  :      0.00s CPU      0.00s WALL (       6 calls)

     Parallel routines

     PWSCF        :      1.54s CPU      1.56s WALL


   This run was terminated on:  15:52: 8  15Mar2026            

=------------------------------------------------------------------------------=
   JOB DONE.
=------------------------------------------------------------------------------=
