
     Program PWSCF v.7.5 starts on 15Mar2026 at 16:10:59 

     This program is part of the open-source Quantum ESPRESSO suite
     for quantum simulation of materials; please cite
         "P. Giannozzi et al., J. Phys.:Condens. Matter 21 395502 (2009);
         "P. Giannozzi et al., J. Phys.:Condens. Matter 29 465901 (2017);
         "P. Giannozzi et al., J. Chem. Phys. 152 154105 (2020);
          URL http://www.quantum-espresso.org", 
     in publications or presentations arising from this work. More details at
     http://www.quantum-espresso.org/quote

     Parallel version (MPI), running on     1 processors

     MPI processes distributed on     1 nodes
     1367 MiB available memory on the printing compute node when the environment starts

     Reading input from espresso.pwi
Warning: card &CELL ignored
Warning: card &FCP ignored
Warning: card &RISM ignored

     Current dimensions of program PWSCF are:
     Max number of different atomic species (ntypx) = 10
     Max number of k-points (npk) =  40000
     Max angular momentum in pseudopotentials (lmaxx) =  4
     file Cr.pbe-spn-kjpaw_psl.1.0.0.UPF: wavefunction(s)  3S 3P 3D renormalized
     Message from routine setup:
     using ibrav=0 with symmetry is DISCOURAGED, use correct ibrav instead

     Subspace diagonalization in iterative solution of the eigenvalue problem:
     a serial algorithm will be used


     G-vector sticks info
     --------------------
     sticks:   dense  smooth     PW     G-vecs:    dense   smooth      PW
     Sum         529     261    117                 7587     2663     767

     Using Slab Decomposition



     bravais-lattice index     =            0
     lattice parameter (alat)  =       4.6765  a.u.
     unit-cell volume          =      77.9473 (a.u.)^3
     number of atoms/cell      =            1
     number of atomic types    =            1
     number of electrons       =        14.00
     number of Kohn-Sham states=           11
     kinetic-energy cutoff     =      40.0000  Ry
     charge density cutoff     =     320.0000  Ry
     scf convergence threshold =      1.0E-06
     mixing beta               =       0.7000
     number of iterations used =            8  plain     mixing
     Exchange-correlation= SLA  PW   PBX  PBC
                           (   1   4   3   4   0   0   0)

     celldm(1)=   4.676538  celldm(2)=   0.000000  celldm(3)=   0.000000
     celldm(4)=   0.000000  celldm(5)=   0.000000  celldm(6)=   0.000000

     crystal axes: (cart. coord. in units of alat)
               a(1) = (  -0.581180   0.575426   0.575426 )  
               a(2) = (   0.575426  -0.575426   0.575426 )  
               a(3) = (   0.575426   0.575426  -0.575426 )  

     reciprocal axes: (cart. coord. in units 2 pi/alat)
               b(1) = (  0.000000  0.868922  0.868922 )  
               b(2) = (  0.868922  0.004345  0.873266 )  
               b(3) = (  0.868922  0.873266  0.004345 )  


     PseudoPot. # 1 for Cr read from file:
     /home/kenobi/Workspaces/PHYS400/pseudopotentials/Cr.pbe-spn-kjpaw_psl.1.0.0.UPF
     MD5 check sum: 198f1a2427a48552563eee314eba32ba
     Pseudo is Projector augmented-wave + core cor, Zval = 14.0
     Generated using &quot;atomic&quot; code by A. Dal Corso  v.6.3
     Shape of augmentation charge: PSQ
     Using radial grid of 1183 points,  6 beta functions with: 
                l(1) =   0
                l(2) =   0
                l(3) =   1
                l(4) =   1
                l(5) =   2
                l(6) =   2
     Q(r) pseudized with 0 coefficients 


     atomic species   valence    mass     pseudopotential
     Cr               14.00    51.99610     Cr( 1.00)

     Starting magnetic structure 
     atomic species   magnetization
     Cr              0.000

      4 Sym. Ops., with inversion, found



   Cartesian axes

     site n.     atom                  positions (alat units)
         1        Cr     tau(   1) = (   0.0000000   0.0000000   0.0000000  )

     number of k points=    68  Marzari-Vanderbilt smearing, width (Ry)=  0.0200
                       cart. coord. in units 2pi/alat
        k(    1) = (   0.0000000   0.0000000   0.0000000), wk =   0.0046296
        k(    2) = (   0.1448203   0.1455444   0.0007241), wk =   0.0185185
        k(    3) = (   0.2896406   0.2910888   0.0014482), wk =   0.0185185
        k(    4) = (  -0.4344609  -0.4366332  -0.0021723), wk =   0.0092593
        k(    5) = (   0.2896406   0.1462685   0.1462685), wk =   0.0092593
        k(    6) = (   0.4344609   0.2918129   0.1469926), wk =   0.0185185
        k(    7) = (  -0.2896406  -0.4359091   0.1433721), wk =   0.0185185
        k(    8) = (  -0.1448203  -0.2903647   0.1440962), wk =   0.0185185
        k(    9) = (   0.0000000  -0.1448203   0.1448203), wk =   0.0092593
        k(   10) = (   0.5792812   0.2925370   0.2925370), wk =   0.0092593
        k(   11) = (  -0.1448203  -0.4351850   0.2889165), wk =   0.0185185
        k(   12) = (  -0.0000000  -0.2896406   0.2896406), wk =   0.0092593
        k(   13) = (  -0.8689217  -0.4388055  -0.4388055), wk =   0.0046296
        k(   14) = (   0.0000000   0.1448203   0.1448203), wk =   0.0092593
        k(   15) = (   0.1448203   0.2903647   0.1455444), wk =   0.0185185
        k(   16) = (   0.2896406   0.4359091   0.1462685), wk =   0.0185185
        k(   17) = (  -0.4344609  -0.2918129   0.1426480), wk =   0.0185185
        k(   18) = (  -0.2896406  -0.1462685   0.1433721), wk =   0.0185185
        k(   19) = (  -0.1448203  -0.0007241   0.1440962), wk =   0.0185185
        k(   20) = (   0.2896406   0.2910888   0.2910888), wk =   0.0092593
        k(   21) = (   0.4344609   0.4366332   0.2918129), wk =   0.0185185
        k(   22) = (  -0.2896406  -0.2910888   0.2881924), wk =   0.0185185
        k(   23) = (  -0.1448203  -0.1455444   0.2889165), wk =   0.0185185
        k(   24) = (   0.0000000   0.0000000   0.2896406), wk =   0.0185185
        k(   25) = (   0.5792812   0.4373573   0.4373573), wk =   0.0092593
        k(   26) = (  -0.1448203  -0.2903647   0.4337368), wk =   0.0185185
        k(   27) = (  -0.0000000  -0.1448203   0.4344609), wk =   0.0185185
        k(   28) = (   0.1448203   0.0007241   0.4351850), wk =   0.0185185
        k(   29) = (  -0.8689217  -0.2939852  -0.2939852), wk =   0.0092593
        k(   30) = (  -0.7241015  -0.1484408  -0.2932611), wk =   0.0185185
        k(   31) = (  -0.5792812  -0.0028964  -0.2925370), wk =   0.0185185
        k(   32) = (  -0.5792812  -0.1477167  -0.1477167), wk =   0.0092593
        k(   33) = (  -0.4344609  -0.0021723  -0.1469926), wk =   0.0185185
        k(   34) = (  -0.2896406  -0.0014482  -0.0014482), wk =   0.0092593
        k(   35) = (   0.0000000   0.2896406   0.2896406), wk =   0.0092593
        k(   36) = (   0.1448203   0.4351850   0.2903647), wk =   0.0185185
        k(   37) = (   0.2896406   0.5807294   0.2910888), wk =   0.0185185
        k(   38) = (  -0.4344609  -0.1469926   0.2874683), wk =   0.0185185
        k(   39) = (  -0.2896406  -0.0014482   0.2881924), wk =   0.0185185
        k(   40) = (  -0.1448203   0.1440962   0.2889165), wk =   0.0185185
        k(   41) = (   0.2896406   0.4359091   0.4359091), wk =   0.0092593
        k(   42) = (   0.4344609   0.5814535   0.4366332), wk =   0.0185185
        k(   43) = (  -0.2896406  -0.1462685   0.4330127), wk =   0.0185185
        k(   44) = (  -0.1448203  -0.0007241   0.4337368), wk =   0.0185185
        k(   45) = (   0.0000000   0.1448203   0.4344609), wk =   0.0185185
        k(   46) = (   0.5792812   0.5821776   0.5821776), wk =   0.0092593
        k(   47) = (  -0.1448203  -0.1455444   0.5785571), wk =   0.0185185
        k(   48) = (  -0.0000000  -0.0000000   0.5792812), wk =   0.0185185
        k(   49) = (   0.1448203   0.1455444   0.5800053), wk =   0.0185185
        k(   50) = (  -0.8689217  -0.1491649  -0.1491649), wk =   0.0092593
        k(   51) = (  -0.7241015  -0.0036205  -0.1484408), wk =   0.0185185
        k(   52) = (  -0.5792812   0.1419239  -0.1477167), wk =   0.0185185
        k(   53) = (  -0.5792812  -0.0028964  -0.0028964), wk =   0.0092593
        k(   54) = (  -0.4344609   0.1426480  -0.0021723), wk =   0.0185185
        k(   55) = (  -0.2896406   0.1433721   0.1433721), wk =   0.0092593
        k(   56) = (   0.0000000  -0.4344609  -0.4344609), wk =   0.0046296
        k(   57) = (   0.1448203  -0.2889165  -0.4337368), wk =   0.0185185
        k(   58) = (   0.2896406  -0.1433721  -0.4330127), wk =   0.0185185
        k(   59) = (  -0.4344609  -0.8710940  -0.4366332), wk =   0.0092593
        k(   60) = (   0.2896406  -0.2881924  -0.2881924), wk =   0.0092593
        k(   61) = (   0.4344609  -0.1426480  -0.2874683), wk =   0.0185185
        k(   62) = (  -0.2896406  -0.8703699  -0.2910888), wk =   0.0185185
        k(   63) = (  -0.1448203  -0.7248256  -0.2903647), wk =   0.0185185
        k(   64) = (   0.0000000  -0.5792812  -0.2896406), wk =   0.0092593
        k(   65) = (   0.5792812  -0.1419239  -0.1419239), wk =   0.0092593
        k(   66) = (  -0.1448203  -0.8696458  -0.1455444), wk =   0.0185185
        k(   67) = (  -0.0000000  -0.7241015  -0.1448203), wk =   0.0092593
        k(   68) = (  -0.8689217  -0.8732664  -0.8732664), wk =   0.0046296

     Dense  grid:     7587 G-vectors     FFT dimensions: (  27,  27,  27)

     Smooth grid:     2663 G-vectors     FFT dimensions: (  20,  20,  20)

     Estimated max dynamical RAM per process >      40.16 MB

     Check: negative core charge=   -0.000012
     Generating pointlists ...
     new r_m :   0.4098 (alat units)  1.9163 (a.u.) for type    1

     Initial potential from superposition of free atoms

     starting charge      13.9992, renormalised to      14.0000
     Starting wfcs are   10 randomized atomic wfcs +    1 random wfcs
     Checking if some PAW data can be deallocated... 

     total cpu time spent up to now is        1.2 secs

     Self-consistent Calculation

     iteration #  1     ecut=    40.00 Ry     beta= 0.70
     Davidson diagonalization with overlap
     ethr =  1.00E-02,  avg # of iterations =  3.0

     Threshold (ethr) on eigenvalues was too large:
     Diagonalizing with lowered threshold

     Davidson diagonalization with overlap
     ethr =  7.17E-04,  avg # of iterations =  1.4

     total cpu time spent up to now is        3.5 secs

     total energy              =    -248.14884947 Ry
     estimated scf accuracy    <       0.10476472 Ry

     total magnetization       =     0.01 Bohr mag/cell
     absolute magnetization    =     0.10 Bohr mag/cell

     iteration #  2     ecut=    40.00 Ry     beta= 0.70
     Davidson diagonalization with overlap
     ethr =  7.48E-04,  avg # of iterations =  2.8

     total cpu time spent up to now is        5.1 secs

     total energy              =    -248.17546337 Ry
     estimated scf accuracy    <       0.12050023 Ry

     total magnetization       =     0.00 Bohr mag/cell
     absolute magnetization    =     0.03 Bohr mag/cell

     iteration #  3     ecut=    40.00 Ry     beta= 0.70
     Davidson diagonalization with overlap
     ethr =  7.48E-04,  avg # of iterations =  2.0

     total cpu time spent up to now is        6.4 secs

     total energy              =    -248.20094680 Ry
     estimated scf accuracy    <       0.00074109 Ry

     total magnetization       =     0.00 Bohr mag/cell
     absolute magnetization    =     0.02 Bohr mag/cell

     iteration #  4     ecut=    40.00 Ry     beta= 0.70
     Davidson diagonalization with overlap
     ethr =  5.29E-06,  avg # of iterations =  3.6

     total cpu time spent up to now is        8.0 secs

     total energy              =    -248.20127568 Ry
     estimated scf accuracy    <       0.00028099 Ry

     total magnetization       =     0.00 Bohr mag/cell
     absolute magnetization    =     0.01 Bohr mag/cell

     iteration #  5     ecut=    40.00 Ry     beta= 0.70
     Davidson diagonalization with overlap
     ethr =  2.01E-06,  avg # of iterations =  2.2

     total cpu time spent up to now is        9.4 secs

     total energy              =    -248.20135338 Ry
     estimated scf accuracy    <       0.00006797 Ry

     total magnetization       =     0.00 Bohr mag/cell
     absolute magnetization    =     0.00 Bohr mag/cell

     iteration #  6     ecut=    40.00 Ry     beta= 0.70
     Davidson diagonalization with overlap
     ethr =  4.86E-07,  avg # of iterations =  2.0

     total cpu time spent up to now is       10.7 secs

     total energy              =    -248.20136859 Ry
     estimated scf accuracy    <       0.00000168 Ry

     total magnetization       =     0.00 Bohr mag/cell
     absolute magnetization    =     0.00 Bohr mag/cell

     iteration #  7     ecut=    40.00 Ry     beta= 0.70
     Davidson diagonalization with overlap
     ethr =  1.20E-08,  avg # of iterations =  3.3

     Magnetic moment per site  (integrated on atomic sphere of radius R)
     atom   1 (R=0.410)  charge= 12.1997  magn=  0.0001

     total cpu time spent up to now is       12.3 secs

     End of self-consistent calculation

     Number of k-points >= 100: set verbosity='high' to print the bands.

     the Fermi energy is    19.5992 ev

!    total energy              =    -248.20137102 Ry
     total all-electron energy =     -2101.734050 Ry
     estimated scf accuracy    <       0.00000021 Ry
     smearing contrib. (-TS)   =      -0.00044996 Ry
     internal energy E=F+TS    =    -248.20092105 Ry

     The total energy is F=E-TS. E is the sum of the following terms:
     one-electron contribution =     -55.41789656 Ry
     hartree contribution      =      36.27557671 Ry
     xc contribution           =     -22.28251424 Ry
     ewald contribution        =    -132.53176732 Ry
     one-center paw contrib.   =     -74.24431965 Ry

     total magnetization       =     0.00 Bohr mag/cell
     absolute magnetization    =     0.00 Bohr mag/cell

     convergence has been achieved in   7 iterations

     Forces acting on atoms (cartesian axes, Ry/au):

     atom    1 type  1   force =     0.00000000    0.00000000    0.00000000

     Total force =     0.000000     Total SCF correction =     0.000000


     Computing stress (Cartesian axis) and pressure

          total   stress  (Ry/bohr**3)                   (kbar)     P=     -332.49
  -0.00225160   0.00004221   0.00004221         -331.22        6.21        6.21
   0.00004221  -0.00226454   0.00000150            6.21     -333.13        0.22
   0.00004221   0.00000150  -0.00226454            6.21        0.22     -333.13


     Writing all to output data dir ./pwscf.save/ :
     XML data file, charge density, pseudopotentials, collected wavefunctions

     init_run     :      0.99s CPU      1.05s WALL (       1 calls)
     electrons    :     10.70s CPU     11.09s WALL (       1 calls)
     forces       :      0.13s CPU      0.13s WALL (       1 calls)
     stress       :      0.52s CPU      0.52s WALL (       1 calls)

     Called by init_run:
     wfcinit      :      0.29s CPU      0.30s WALL (       1 calls)
     potinit      :      0.41s CPU      0.45s WALL (       1 calls)
     hinit0       :      0.26s CPU      0.26s WALL (       1 calls)

     Called by electrons:
     c_bands      :      6.53s CPU      6.61s WALL (       8 calls)
     sum_band     :      1.29s CPU      1.32s WALL (       8 calls)
     v_of_rho     :      0.13s CPU      0.13s WALL (       8 calls)
     newd         :      0.16s CPU      0.22s WALL (       8 calls)
     PAW_pot      :      2.99s CPU      3.25s WALL (       8 calls)
     mix_rho      :      0.01s CPU      0.01s WALL (       8 calls)

     Called by c_bands:
     init_us_2    :      0.16s CPU      0.16s WALL (    2584 calls)
     cegterg      :      6.29s CPU      6.37s WALL (    1088 calls)

     Called by *egterg:
     cdiaghg      :      0.37s CPU      0.37s WALL (    3729 calls)
     h_psi        :      4.94s CPU      5.00s WALL (    4001 calls)
     s_psi        :      0.20s CPU      0.21s WALL (    4001 calls)
     g_psi        :      0.02s CPU      0.02s WALL (    2777 calls)

     Called by h_psi:
     h_psi:calbec :      0.28s CPU      0.28s WALL (    4001 calls)
     vloc_psi     :      4.43s CPU      4.49s WALL (    4001 calls)
                                        0.00s GPU  (    4001 calls)
     add_vuspsi   :      0.21s CPU      0.21s WALL (    4001 calls)

     General routines
     calbec       :      0.61s CPU      0.61s WALL (    7401 calls)
     fft          :      0.07s CPU      0.07s WALL (     240 calls)
     ffts         :      0.00s CPU      0.00s WALL (      32 calls)
     fftw         :      4.84s CPU      4.92s WALL (   73928 calls)
     interpolate  :      0.01s CPU      0.01s WALL (      16 calls)

     Parallel routines

     PWSCF        :     12.47s CPU     12.92s WALL


   This run was terminated on:  16:11:11  15Mar2026            

=------------------------------------------------------------------------------=
   JOB DONE.
=------------------------------------------------------------------------------=
