
     Program PWSCF v.7.5 starts on 15Mar2026 at 15:54:47 

     This program is part of the open-source Quantum ESPRESSO suite
     for quantum simulation of materials; please cite
         "P. Giannozzi et al., J. Phys.:Condens. Matter 21 395502 (2009);
         "P. Giannozzi et al., J. Phys.:Condens. Matter 29 465901 (2017);
         "P. Giannozzi et al., J. Chem. Phys. 152 154105 (2020);
          URL http://www.quantum-espresso.org", 
     in publications or presentations arising from this work. More details at
     http://www.quantum-espresso.org/quote

     Parallel version (MPI), running on     1 processors

     MPI processes distributed on     1 nodes
     3341 MiB available memory on the printing compute node when the environment starts

     Reading input from espresso.pwi
Warning: card &CELL ignored
Warning: card &FCP ignored
Warning: card &RISM ignored

     Current dimensions of program PWSCF are:
     Max number of different atomic species (ntypx) = 10
     Max number of k-points (npk) =  40000
     Max angular momentum in pseudopotentials (lmaxx) =  4
     file Fe.pbe-spn-kjpaw_psl.1.0.0.UPF: wavefunction(s)  3P 3D renormalized
     Message from routine setup:
     using ibrav=0 with symmetry is DISCOURAGED, use correct ibrav instead

     Subspace diagonalization in iterative solution of the eigenvalue problem:
     a serial algorithm will be used


     G-vector sticks info
     --------------------
     sticks:   dense  smooth     PW     G-vecs:    dense   smooth      PW
     Sum         499     249    103                 7107     2491     683

     Using Slab Decomposition



     bravais-lattice index     =            0
     lattice parameter (alat)  =       4.5919  a.u.
     unit-cell volume          =      74.5345 (a.u.)^3
     number of atoms/cell      =            1
     number of atomic types    =            1
     number of electrons       =        16.00
     number of Kohn-Sham states=           12
     kinetic-energy cutoff     =      40.0000  Ry
     charge density cutoff     =     320.0000  Ry
     scf convergence threshold =      1.0E-06
     mixing beta               =       0.7000
     number of iterations used =            8  plain     mixing
     Exchange-correlation= SLA  PW   PBX  PBC
                           (   1   4   3   4   0   0   0)

     celldm(1)=   4.591907  celldm(2)=   0.000000  celldm(3)=   0.000000
     celldm(4)=   0.000000  celldm(5)=   0.000000  celldm(6)=   0.000000

     crystal axes: (cart. coord. in units of alat)
               a(1) = (  -0.577350   0.577350   0.577350 )  
               a(2) = (   0.577350  -0.577350   0.577350 )  
               a(3) = (   0.577350   0.577350  -0.577350 )  

     reciprocal axes: (cart. coord. in units 2 pi/alat)
               b(1) = (  0.000000  0.866025  0.866025 )  
               b(2) = (  0.866025  0.000000  0.866025 )  
               b(3) = (  0.866025  0.866025  0.000000 )  


     PseudoPot. # 1 for Fe read from file:
     /home/kenobi/Workspaces/PHYS400/pseudopotentials/Fe.pbe-spn-kjpaw_psl.1.0.0.UPF
     MD5 check sum: fc81f059e5c5069939230b1155715ae8
     Pseudo is Projector augmented-wave + core cor, Zval = 16.0
     Generated using &quot;atomic&quot; code by A. Dal Corso  v.6.3
     Shape of augmentation charge: PSQ
     Using radial grid of 1191 points,  6 beta functions with: 
                l(1) =   0
                l(2) =   0
                l(3) =   1
                l(4) =   1
                l(5) =   2
                l(6) =   2
     Q(r) pseudized with 0 coefficients 


     atomic species   valence    mass     pseudopotential
     Fe               16.00    55.84500     Fe( 1.00)

     Starting magnetic structure 
     atomic species   magnetization
     Fe              0.144

     48 Sym. Ops., with inversion, found



   Cartesian axes

     site n.     atom                  positions (alat units)
         1        Fe     tau(   1) = (   0.0000000   0.0000000   0.0000000  )

     number of k points=    16  Marzari-Vanderbilt smearing, width (Ry)=  0.0200
                       cart. coord. in units 2pi/alat
        k(    1) = (   0.0000000   0.0000000   0.0000000), wk =   0.0046296
        k(    2) = (   0.1443376   0.1443376   0.0000000), wk =   0.0555556
        k(    3) = (   0.2886751   0.2886751   0.0000000), wk =   0.0555556
        k(    4) = (  -0.4330127  -0.4330127   0.0000000), wk =   0.0277778
        k(    5) = (   0.2886751   0.1443376   0.1443376), wk =   0.1111111
        k(    6) = (   0.4330127   0.2886751   0.1443376), wk =   0.2222222
        k(    7) = (   0.5773503   0.2886751   0.2886751), wk =   0.0370370
        k(    8) = (   0.2886751   0.2886751   0.2886751), wk =   0.0370370
        k(    9) = (   0.4330127   0.4330127   0.2886751), wk =   0.0555556
        k(   10) = (   0.0000000   0.0000000   0.2886751), wk =   0.0277778
        k(   11) = (  -0.0000000  -0.1443376   0.4330127), wk =   0.1111111
        k(   12) = (  -0.8660254  -0.2886751  -0.2886751), wk =   0.0555556
        k(   13) = (  -0.7216878  -0.1443376  -0.2886751), wk =   0.1111111
        k(   14) = (  -0.0000000  -0.0000000   0.5773503), wk =   0.0277778
        k(   15) = (  -0.8660254  -0.1443376  -0.1443376), wk =   0.0555556
        k(   16) = (  -0.8660254  -0.8660254  -0.8660254), wk =   0.0046296

     Dense  grid:     7107 G-vectors     FFT dimensions: (  27,  27,  27)

     Smooth grid:     2491 G-vectors     FFT dimensions: (  20,  20,  20)

     Estimated max dynamical RAM per process >      32.60 MB

     Check: negative core charge=   -0.000010
     Generating pointlists ...
     new r_m :   0.4125 (alat units)  1.8942 (a.u.) for type    1

     Initial potential from superposition of free atoms

     starting charge      15.9996, renormalised to      16.0000
     Starting wfcs are   10 randomized atomic wfcs +    2 random wfcs
     Checking if some PAW data can be deallocated... 

     total cpu time spent up to now is        0.9 secs

     Self-consistent Calculation

     iteration #  1     ecut=    40.00 Ry     beta= 0.70
     Davidson diagonalization with overlap
     ethr =  1.00E-02,  avg # of iterations =  4.0

     Threshold (ethr) on eigenvalues was too large:
     Diagonalizing with lowered threshold

     Davidson diagonalization with overlap
     ethr =  3.91E-04,  avg # of iterations =  2.0

     negative rho (up, down):  0.000E+00 1.039E-04

     total cpu time spent up to now is        1.9 secs

     total energy              =    -329.02106644 Ry
     estimated scf accuracy    <       0.06512980 Ry

     total magnetization       =     2.18 Bohr mag/cell
     absolute magnetization    =     2.18 Bohr mag/cell

     iteration #  2     ecut=    40.00 Ry     beta= 0.70
     Davidson diagonalization with overlap
     ethr =  4.07E-04,  avg # of iterations =  2.8

     negative rho (up, down):  0.000E+00 1.003E-04

     total cpu time spent up to now is        2.7 secs

     total energy              =    -329.02674099 Ry
     estimated scf accuracy    <       0.15061272 Ry

     total magnetization       =     2.20 Bohr mag/cell
     absolute magnetization    =     2.26 Bohr mag/cell

     iteration #  3     ecut=    40.00 Ry     beta= 0.70
     Davidson diagonalization with overlap
     ethr =  4.07E-04,  avg # of iterations =  2.1

     negative rho (up, down):  0.000E+00 3.321E-04

     total cpu time spent up to now is        3.4 secs

     total energy              =    -329.05551388 Ry
     estimated scf accuracy    <       0.00093672 Ry

     total magnetization       =     2.19 Bohr mag/cell
     absolute magnetization    =     2.25 Bohr mag/cell

     iteration #  4     ecut=    40.00 Ry     beta= 0.70
     Davidson diagonalization with overlap
     ethr =  5.85E-06,  avg # of iterations =  2.6

     negative rho (up, down):  0.000E+00 3.523E-04

     total cpu time spent up to now is        4.1 secs

     total energy              =    -329.05597775 Ry
     estimated scf accuracy    <       0.00012513 Ry

     total magnetization       =     2.19 Bohr mag/cell
     absolute magnetization    =     2.28 Bohr mag/cell

     iteration #  5     ecut=    40.00 Ry     beta= 0.70
     Davidson diagonalization with overlap
     ethr =  7.82E-07,  avg # of iterations =  2.1

     negative rho (up, down):  0.000E+00 3.534E-04

     total cpu time spent up to now is        4.8 secs

     total energy              =    -329.05603562 Ry
     estimated scf accuracy    <       0.00002787 Ry

     total magnetization       =     2.19 Bohr mag/cell
     absolute magnetization    =     2.29 Bohr mag/cell

     iteration #  6     ecut=    40.00 Ry     beta= 0.70
     Davidson diagonalization with overlap
     ethr =  1.74E-07,  avg # of iterations =  1.5

     negative rho (up, down):  0.000E+00 3.547E-04

     Magnetic moment per site  (integrated on atomic sphere of radius R)
     atom   1 (R=0.413)  charge= 14.3638  magn=  2.2280

     total cpu time spent up to now is        5.5 secs

     End of self-consistent calculation

 ------ SPIN UP ------------


          k = 0.0000 0.0000 0.0000 (   321 PWs)   bands (ev):

   -69.4714 -35.1206 -35.1206 -35.1206  10.2825  16.6615  16.6615  16.6615
    18.0161  18.0161  43.7015  43.7015

          k = 0.1443 0.1443 0.0000 (   329 PWs)   bands (ev):

   -69.4503 -35.2653 -35.1553 -35.1255  11.4047  16.3566  16.5367  17.2530
    17.8131  17.9431  38.7484  41.9507

          k = 0.2887 0.2887 0.0000 (   322 PWs)   bands (ev):

   -69.4050 -35.4228 -35.2245 -35.1426  13.5765  15.7872  16.9792  17.8893
    18.1433  18.8049  31.2489  38.6067

          k =-0.4330-0.4330 0.0000 (   312 PWs)   bands (ev):

   -69.3809 -35.5119 -35.2186 -35.1255  13.9467  15.6360  17.9855  18.2507
    19.3430  19.7774  26.6731  37.2401

          k = 0.2887 0.1443 0.1443 (   321 PWs)   bands (ev):

   -69.4157 -35.3569 -35.1988 -35.1525  13.2614  16.0597  16.1594  17.6951
    18.1858  18.7020  34.9896  36.0886

          k = 0.4330 0.2887 0.1443 (   316 PWs)   bands (ev):

   -69.3821 -35.4838 -35.2691 -35.1453  14.4775  15.6636  16.7350  18.0227
    18.5673  21.2304  28.4290  33.4436

          k = 0.5774 0.2887 0.2887 (   309 PWs)   bands (ev):

   -69.3700 -35.3877 -35.3877 -35.1492  15.2376  15.8742  15.8742  18.4188
    18.4188  25.8982  25.8982  28.7418

          k = 0.2887 0.2887 0.2887 (   318 PWs)   bands (ev):

   -69.3906 -35.4376 -35.2202 -35.2202  15.1725  15.5755  15.5755  18.1643
    18.1643  21.2276  32.1950  32.1950

          k = 0.4330 0.4330 0.2887 (   324 PWs)   bands (ev):

   -69.3800 -35.4364 -35.3257 -35.2646  15.1682  15.3778  16.3990  18.1579
    18.1923  24.5667  27.0961  31.1777

          k = 0.0000 0.0000 0.2887 (   317 PWs)   bands (ev):

   -69.4272 -35.2272 -35.1771 -35.1771  12.4262  16.8182  16.8182  17.0444
    17.2947  18.4679  38.4643  40.1263

          k =-0.0000-0.1443 0.4330 (   316 PWs)   bands (ev):

   -69.3865 -35.4067 -35.2485 -35.1943  14.2811  15.9849  16.5215  17.5560
    18.6822  19.4775  31.9673  36.7756

          k =-0.8660-0.2887-0.2887 (   312 PWs)   bands (ev):

   -69.3648 -35.4820 -35.2883 -35.1736  14.4944  16.1802  16.2954  17.7257
    19.6210  22.2666  26.8258  35.2578

          k =-0.7217-0.1443-0.2887 (   312 PWs)   bands (ev):

   -69.3568 -35.4447 -35.3589 -35.1836  15.1129  15.2076  16.5425  18.2018
    19.0021  23.1708  29.2280  30.2325

          k =-0.0000-0.0000 0.5774 (   322 PWs)   bands (ev):

   -69.3528 -35.4020 -35.3515 -35.3515  14.6398  14.9267  17.8998  17.8998
    18.6109  21.9567  32.7243  32.7243

          k =-0.8660-0.1443-0.1443 (   320 PWs)   bands (ev):

   -69.3340 -35.4331 -35.3835 -35.3500  14.3967  14.5286  18.0581  18.4360
    19.4733  26.1334  27.6645  30.9415

          k =-0.8660-0.8660-0.8660 (   298 PWs)   bands (ev):

   -69.3117 -35.3444 -35.3444 -35.3444  14.0836  14.0836  19.5800  19.5800
    19.5800  28.9331  28.9331  28.9331

 ------ SPIN DOWN ----------


          k = 0.0000 0.0000 0.0000 (   321 PWs)   bands (ev):

   -66.8304 -32.5217 -32.5217 -32.5217  10.4209  18.5667  18.5667  18.5667
    20.7956  20.7956  43.4727  43.4727

          k = 0.1443 0.1443 0.0000 (   329 PWs)   bands (ev):

   -66.8068 -32.6779 -32.5592 -32.5277  11.5602  18.2019  18.4012  19.2154
    20.4855  20.7288  39.1233  41.9761

          k = 0.2887 0.2887 0.0000 (   322 PWs)   bands (ev):

   -66.7580 -32.8615 -32.6354 -32.5438  14.1568  17.5318  18.2506  20.4091
    20.9165  20.9583  32.1294  38.6833

          k =-0.4330-0.4330 0.0000 (   312 PWs)   bands (ev):

   -66.7321 -32.9620 -32.6335 -32.5272  15.1938  17.3309  19.4379  20.5476
    21.0951  22.0008  28.0470  37.2715

          k = 0.2887 0.1443 0.1443 (   321 PWs)   bands (ev):

   -66.7698 -32.7870 -32.6081 -32.5563  13.5432  17.8477  17.8790  20.2469
    20.6125  21.0480  35.6136  36.6261

          k = 0.4330 0.2887 0.1443 (   316 PWs)   bands (ev):

   -66.7335 -32.9273 -32.6875 -32.5502  15.6236  17.3309  17.9987  20.5381
    21.1588  22.8878  29.4807  34.0217

          k = 0.5774 0.2887 0.2887 (   309 PWs)   bands (ev):

   -66.7207 -32.8218 -32.8218 -32.5561  16.7376  17.3328  17.3328  20.9297
    20.9297  27.0165  27.0165  29.6153

          k = 0.2887 0.2887 0.2887 (   318 PWs)   bands (ev):

   -66.7427 -32.8773 -32.6318 -32.6318  15.7703  17.1711  17.1711  20.9307
    20.9307  22.9568  32.8772  32.8774

          k = 0.4330 0.4330 0.2887 (   324 PWs)   bands (ev):

   -66.7304 -32.8738 -32.7479 -32.6765  16.5024  16.9023  17.5841  20.9145
    21.0504  25.6784  28.1850  31.8534

          k = 0.0000 0.0000 0.2887 (   317 PWs)   bands (ev):

   -66.7828 -32.6445 -32.5855 -32.5855  12.6242  18.6620  18.6620  19.2622
    19.5216  21.2634  38.8297  40.6476

          k =-0.0000-0.1443 0.4330 (   316 PWs)   bands (ev):

   -66.7382 -32.8420 -32.6643 -32.6046  14.9762  17.8777  18.3099  19.6764
    20.7755  21.7651  32.8025  37.3964

          k =-0.8660-0.2887-0.2887 (   312 PWs)   bands (ev):

   -66.7150 -32.9275 -32.7077 -32.5839  15.9408  17.7630  18.0479  19.9730
    21.8357  23.5443  28.0874  35.8253

          k =-0.7217-0.1443-0.2887 (   312 PWs)   bands (ev):

   -66.7065 -32.8840 -32.7859 -32.5967  16.5184  17.0186  18.2887  20.2977
    21.1989  24.5274  30.1938  30.9624

          k =-0.0000-0.0000 0.5774 (   322 PWs)   bands (ev):

   -66.7012 -32.8340 -32.7758 -32.7758  16.0001  16.9285  19.7962  19.7962
    20.7209  23.3575  33.2986  33.2986

          k =-0.8660-0.1443-0.1443 (   320 PWs)   bands (ev):

   -66.6808 -32.8700 -32.8117 -32.7753  16.2187  16.2891  20.0080  20.3932
    21.6715  26.9377  28.4658  31.4050

          k =-0.8660-0.8660-0.8660 (   298 PWs)   bands (ev):

   -66.6584 -32.7778 -32.7778 -32.7778  15.8854  15.8854  21.7678  21.7678
    21.7678  29.1957  29.1957  29.1957

     the Fermi energy is    19.0738 ev

!    total energy              =    -329.05604368 Ry
     total all-electron energy =     -2545.352577 Ry
     estimated scf accuracy    <       0.00000038 Ry
     smearing contrib. (-TS)   =       0.00140778 Ry
     internal energy E=F+TS    =    -329.05745146 Ry

     The total energy is F=E-TS. E is the sum of the following terms:
     one-electron contribution =    -106.62259498 Ry
     hartree contribution      =      63.78077399 Ry
     xc contribution           =     -27.76162929 Ry
     ewald contribution        =    -175.70633033 Ry
     one-center paw contrib.   =     -82.74767086 Ry

     total magnetization       =     2.19 Bohr mag/cell
     absolute magnetization    =     2.30 Bohr mag/cell

     convergence has been achieved in   6 iterations

     negative rho (up, down):  0.000E+00 3.547E-04

     Forces acting on atoms (cartesian axes, Ry/au):

     atom    1 type  1   force =     0.00000000    0.00000000    0.00000000

     Total force =     0.000000     Total SCF correction =     0.000000


     Computing stress (Cartesian axis) and pressure


     negative rho (up, down):  0.000E+00 3.547E-04
          total   stress  (Ry/bohr**3)                   (kbar)     P=    -2687.48
  -0.01826914  -0.00000000  -0.00000000        -2687.48       -0.00       -0.00
  -0.00000000  -0.01826914  -0.00000000           -0.00    -2687.48       -0.00
  -0.00000000  -0.00000000  -0.01826914           -0.00       -0.00    -2687.48


     Writing all to output data dir ./pwscf.save/ :
     XML data file, charge density, pseudopotentials, collected wavefunctions

     init_run     :      0.77s CPU      0.82s WALL (       1 calls)
     electrons    :      4.34s CPU      4.57s WALL (       1 calls)
     forces       :      0.07s CPU      0.07s WALL (       1 calls)
     stress       :      0.28s CPU      0.28s WALL (       1 calls)

     Called by init_run:
     wfcinit      :      0.07s CPU      0.07s WALL (       1 calls)
     potinit      :      0.41s CPU      0.46s WALL (       1 calls)
     hinit0       :      0.26s CPU      0.26s WALL (       1 calls)

     Called by electrons:
     c_bands      :      1.40s CPU      1.42s WALL (       7 calls)
     sum_band     :      0.44s CPU      0.45s WALL (       7 calls)
     v_of_rho     :      0.11s CPU      0.11s WALL (       7 calls)
     newd         :      0.15s CPU      0.18s WALL (       7 calls)
     PAW_pot      :      2.63s CPU      2.84s WALL (       7 calls)
     mix_rho      :      0.01s CPU      0.01s WALL (       7 calls)

     Called by c_bands:
     init_us_2    :      0.03s CPU      0.03s WALL (     544 calls)
     cegterg      :      1.35s CPU      1.37s WALL (     224 calls)

     Called by *egterg:
     cdiaghg      :      0.08s CPU      0.09s WALL (     739 calls)
     h_psi        :      1.05s CPU      1.07s WALL (     803 calls)
     s_psi        :      0.04s CPU      0.05s WALL (     803 calls)
     g_psi        :      0.00s CPU      0.00s WALL (     547 calls)

     Called by h_psi:
     h_psi:calbec :      0.06s CPU      0.06s WALL (     803 calls)
     vloc_psi     :      0.95s CPU      0.96s WALL (     803 calls)
                                        0.00s GPU  (     803 calls)
     add_vuspsi   :      0.04s CPU      0.04s WALL (     803 calls)

     General routines
     calbec       :      0.14s CPU      0.14s WALL (    1571 calls)
     fft          :      0.06s CPU      0.06s WALL (     215 calls)
     ffts         :      0.00s CPU      0.00s WALL (      28 calls)
     fftw         :      1.03s CPU      1.05s WALL (   16564 calls)
     interpolate  :      0.01s CPU      0.01s WALL (      14 calls)

     Parallel routines

     PWSCF        :      5.58s CPU      5.87s WALL


   This run was terminated on:  15:54:53  15Mar2026            

=------------------------------------------------------------------------------=
   JOB DONE.
=------------------------------------------------------------------------------=
