
     Program PWSCF v.7.5 starts on 15Mar2026 at 16:11:19 

     This program is part of the open-source Quantum ESPRESSO suite
     for quantum simulation of materials; please cite
         "P. Giannozzi et al., J. Phys.:Condens. Matter 21 395502 (2009);
         "P. Giannozzi et al., J. Phys.:Condens. Matter 29 465901 (2017);
         "P. Giannozzi et al., J. Chem. Phys. 152 154105 (2020);
          URL http://www.quantum-espresso.org", 
     in publications or presentations arising from this work. More details at
     http://www.quantum-espresso.org/quote

     Parallel version (MPI), running on     1 processors

     MPI processes distributed on     1 nodes
     1388 MiB available memory on the printing compute node when the environment starts

     Reading input from espresso.pwi
Warning: card &CELL ignored
Warning: card &FCP ignored
Warning: card &RISM ignored

     Current dimensions of program PWSCF are:
     Max number of different atomic species (ntypx) = 10
     Max number of k-points (npk) =  40000
     Max angular momentum in pseudopotentials (lmaxx) =  4
     file Cu.pbe-dn-kjpaw_psl.1.0.0.UPF: wavefunction(s)  4S 3D renormalized
     Message from routine setup:
     using ibrav=0 with symmetry is DISCOURAGED, use correct ibrav instead

     Subspace diagonalization in iterative solution of the eigenvalue problem:
     a serial algorithm will be used


     G-vector sticks info
     --------------------
     sticks:   dense  smooth     PW     G-vecs:    dense   smooth      PW
     Sum         499     253     85                 7391     2637     537

     Using Slab Decomposition



     bravais-lattice index     =            0
     lattice parameter (alat)  =       4.7595  a.u.
     unit-cell volume          =      76.2377 (a.u.)^3
     number of atoms/cell      =            1
     number of atomic types    =            1
     number of electrons       =        11.00
     number of Kohn-Sham states=           10
     kinetic-energy cutoff     =      40.0000  Ry
     charge density cutoff     =     320.0000  Ry
     scf convergence threshold =      1.0E-06
     mixing beta               =       0.7000
     number of iterations used =            8  plain     mixing
     Exchange-correlation= SLA  PW   PBX  PBC
                           (   1   4   3   4   0   0   0)

     celldm(1)=   4.759502  celldm(2)=   0.000000  celldm(3)=   0.000000
     celldm(4)=   0.000000  celldm(5)=   0.000000  celldm(6)=   0.000000

     crystal axes: (cart. coord. in units of alat)
               a(1) = (   0.000000   0.707107   0.707107 )  
               a(2) = (   0.707107   0.000000   0.707107 )  
               a(3) = (   0.707107   0.707107   0.000000 )  

     reciprocal axes: (cart. coord. in units 2 pi/alat)
               b(1) = ( -0.707107  0.707107  0.707107 )  
               b(2) = (  0.707107 -0.707107  0.707107 )  
               b(3) = (  0.707107  0.707107 -0.707107 )  


     PseudoPot. # 1 for Cu read from file:
     /home/kenobi/Workspaces/PHYS400/pseudopotentials/Cu.pbe-dn-kjpaw_psl.1.0.0.UPF
     MD5 check sum: cfffd1f38ee05704b3e17f46f1730a6f
     Pseudo is Projector augmented-wave + core cor, Zval = 11.0
     Generated using &quot;atomic&quot; code by A. Dal Corso  v.6.3
     Shape of augmentation charge: PSQ
     Using radial grid of 1199 points,  6 beta functions with: 
                l(1) =   0
                l(2) =   0
                l(3) =   1
                l(4) =   1
                l(5) =   2
                l(6) =   2
     Q(r) pseudized with 0 coefficients 


     atomic species   valence    mass     pseudopotential
     Cu               11.00    63.54600     Cu( 1.00)

     48 Sym. Ops., with inversion, found



   Cartesian axes

     site n.     atom                  positions (alat units)
         1        Cu     tau(   1) = (   0.0000000   0.0000000   0.0000000  )

     number of k points=    16  Marzari-Vanderbilt smearing, width (Ry)=  0.0200
                       cart. coord. in units 2pi/alat
        k(    1) = (   0.0000000   0.0000000   0.0000000), wk =   0.0092593
        k(    2) = (   0.1178511   0.1178511  -0.1178511), wk =   0.0740741
        k(    3) = (   0.2357023   0.2357023  -0.2357023), wk =   0.0740741
        k(    4) = (  -0.3535534  -0.3535534   0.3535534), wk =   0.0370370
        k(    5) = (   0.2357023   0.0000000   0.0000000), wk =   0.0555556
        k(    6) = (   0.3535534   0.1178511  -0.1178511), wk =   0.2222222
        k(    7) = (  -0.2357023  -0.4714045   0.4714045), wk =   0.2222222
        k(    8) = (  -0.1178511  -0.3535534   0.3535534), wk =   0.2222222
        k(    9) = (   0.0000000  -0.2357023   0.2357023), wk =   0.1111111
        k(   10) = (   0.4714045   0.0000000   0.0000000), wk =   0.0555556
        k(   11) = (  -0.1178511  -0.5892557   0.5892557), wk =   0.2222222
        k(   12) = (  -0.0000000  -0.4714045   0.4714045), wk =   0.1111111
        k(   13) = (  -0.7071068   0.0000000   0.0000000), wk =   0.0277778
        k(   14) = (  -0.2357023  -0.4714045   0.7071068), wk =   0.2222222
        k(   15) = (  -0.1178511  -0.3535534   0.5892557), wk =   0.2222222
        k(   16) = (  -0.7071068   0.2357023   0.0000000), wk =   0.1111111

     Dense  grid:     7391 G-vectors     FFT dimensions: (  27,  27,  27)

     Smooth grid:     2637 G-vectors     FFT dimensions: (  20,  20,  20)

     Estimated max dynamical RAM per process >      29.43 MB

     Initial potential from superposition of free atoms

     starting charge      10.9998, renormalised to      11.0000
     Starting wfcs are    9 randomized atomic wfcs +    1 random wfcs
     Checking if some PAW data can be deallocated... 

     total cpu time spent up to now is        0.7 secs

     Self-consistent Calculation

     iteration #  1     ecut=    40.00 Ry     beta= 0.70
     Davidson diagonalization with overlap
     ethr =  1.00E-02,  avg # of iterations =  4.1

     Threshold (ethr) on eigenvalues was too large:
     Diagonalizing with lowered threshold

     Davidson diagonalization with overlap
     ethr =  5.83E-04,  avg # of iterations =  2.3

     total cpu time spent up to now is        1.1 secs

     total energy              =    -213.04898411 Ry
     estimated scf accuracy    <       0.06416484 Ry

     iteration #  2     ecut=    40.00 Ry     beta= 0.70
     Davidson diagonalization with overlap
     ethr =  5.83E-04,  avg # of iterations =  2.0

     total cpu time spent up to now is        1.4 secs

     total energy              =    -213.05181125 Ry
     estimated scf accuracy    <       0.21551893 Ry

     iteration #  3     ecut=    40.00 Ry     beta= 0.70
     Davidson diagonalization with overlap
     ethr =  5.83E-04,  avg # of iterations =  2.0

     total cpu time spent up to now is        1.8 secs

     total energy              =    -213.08658223 Ry
     estimated scf accuracy    <       0.00010372 Ry

     iteration #  4     ecut=    40.00 Ry     beta= 0.70
     Davidson diagonalization with overlap
     ethr =  9.43E-07,  avg # of iterations =  3.1

     total cpu time spent up to now is        2.1 secs

     total energy              =    -213.08662474 Ry
     estimated scf accuracy    <       0.00003049 Ry

     iteration #  5     ecut=    40.00 Ry     beta= 0.70
     Davidson diagonalization with overlap
     ethr =  2.77E-07,  avg # of iterations =  1.4

     total cpu time spent up to now is        2.4 secs

     total energy              =    -213.08663167 Ry
     estimated scf accuracy    <       0.00000192 Ry

     iteration #  6     ecut=    40.00 Ry     beta= 0.70
     Davidson diagonalization with overlap
     ethr =  1.74E-08,  avg # of iterations =  1.5

     total cpu time spent up to now is        2.7 secs

     End of self-consistent calculation

          k = 0.0000 0.0000 0.0000 (   331 PWs)   bands (ev):

     3.7089  10.3327  10.3327  10.3327  11.2247  11.2247  36.7560  39.4902
    39.4902  39.4902

          k = 0.1179 0.1179-0.1179 (   320 PWs)   bands (ev):

     4.7283  10.1402  10.4823  10.4823  11.1960  11.1960  30.5889  37.1789
    37.7140  37.7140

          k = 0.2357 0.2357-0.2357 (   332 PWs)   bands (ev):

     7.1749  10.2901  10.4182  10.4182  11.5465  11.5465  22.3568  35.8760
    36.4850  36.4850

          k =-0.3536-0.3536 0.3536 (   332 PWs)   bands (ev):

     8.1238  10.2948  10.2948  11.8387  11.8387  12.2803  17.4469  35.1321
    36.2402  36.2402

          k = 0.2357 0.0000 0.0000 (   327 PWs)   bands (ev):

     5.0599   9.9369  10.6671  10.6671  10.8893  11.3708  33.8130  33.8130
    34.1639  35.8860

          k = 0.3536 0.1179-0.1179 (   326 PWs)   bands (ev):

     7.0747   9.6574  10.3840  10.8053  11.5672  11.6465  25.6089  31.8370
    32.7996  34.8170

          k =-0.2357-0.4714 0.4714 (   321 PWs)   bands (ev):

     8.5720   9.8783  10.3954  10.6448  11.8599  13.9451  18.6934  29.6691
    32.1269  34.4144

          k =-0.1179-0.3536 0.3536 (   329 PWs)   bands (ev):

     8.3886  10.0606  10.1403  10.6354  11.4653  13.1373  20.7079  28.1107
    34.8269  35.7221

          k = 0.0000-0.2357 0.2357 (   325 PWs)   bands (ev):

     6.2902   9.8708  10.4465  10.7903  10.9011  11.7335  28.0926  28.8457
    38.8844  39.4843

          k = 0.4714 0.0000 0.0000 (   323 PWs)   bands (ev):

     7.8943   9.1821  11.2920  11.4817  11.4817  11.6683  27.5127  28.8540
    28.8540  32.1250

          k =-0.1179-0.5893 0.5893 (   326 PWs)   bands (ev):

     8.6290   9.0933  10.9062  11.4262  11.9103  14.7029  22.6705  23.6748
    28.3581  33.0457

          k =-0.0000-0.4714 0.4714 (   323 PWs)   bands (ev):

     9.2188   9.3823  10.1749  11.1434  11.6239  16.8190  19.5469  22.2733
    30.5851  33.8925

          k =-0.7071 0.0000 0.0000 (   326 PWs)   bands (ev):

     8.3205   8.8210  11.8196  11.9933  11.9933  14.8850  20.8852  26.8956
    26.8956  31.5132

          k =-0.2357-0.4714 0.7071 (   332 PWs)   bands (ev):

     8.6802   9.4684  10.0244  11.2673  11.4809  13.4266  24.0146  25.0920
    28.6587  38.8384

          k =-0.1179-0.3536 0.5893 (   324 PWs)   bands (ev):

     9.3458   9.3698   9.9847  11.0651  11.8038  17.1025  18.4572  25.5144
    25.8843  39.2197

          k =-0.7071 0.2357 0.0000 (   330 PWs)   bands (ev):

     8.8667   9.2349  10.5279  11.3819  11.9939  17.5710  21.4097  22.3856
    23.8117  37.7782

     the Fermi energy is    13.4815 ev

!    total energy              =    -213.08663207 Ry
     total all-electron energy =     -3309.966398 Ry
     estimated scf accuracy    <          6.1E-09 Ry
     smearing contrib. (-TS)   =       0.00001752 Ry
     internal energy E=F+TS    =    -213.08664959 Ry

     The total energy is F=E-TS. E is the sum of the following terms:
     one-electron contribution =     -26.12453580 Ry
     hartree contribution      =      29.96837581 Ry
     xc contribution           =     -44.65646642 Ry
     ewald contribution        =     -82.42047639 Ry
     one-center paw contrib.   =     -89.85354680 Ry

     convergence has been achieved in   6 iterations

     Forces acting on atoms (cartesian axes, Ry/au):

     atom    1 type  1   force =     0.00000000    0.00000000    0.00000000

     Total force =     0.000000     Total SCF correction =     0.000000


     Computing stress (Cartesian axis) and pressure

          total   stress  (Ry/bohr**3)                   (kbar)     P=       95.45
   0.00064883   0.00000000   0.00000000           95.45        0.00        0.00
   0.00000000   0.00064883   0.00000000            0.00       95.45        0.00
   0.00000000   0.00000000   0.00064883            0.00        0.00       95.45


     Writing all to output data dir ./pwscf.save/ :
     XML data file, charge density, pseudopotentials, collected wavefunctions

     init_run     :      0.53s CPU      0.57s WALL (       1 calls)
     electrons    :      1.96s CPU      1.98s WALL (       1 calls)
     forces       :      0.04s CPU      0.04s WALL (       1 calls)
     stress       :      0.23s CPU      0.23s WALL (       1 calls)

     Called by init_run:
     wfcinit      :      0.03s CPU      0.03s WALL (       1 calls)
     potinit      :      0.22s CPU      0.24s WALL (       1 calls)
     hinit0       :      0.26s CPU      0.27s WALL (       1 calls)

     Called by electrons:
     c_bands      :      0.55s CPU      0.56s WALL (       7 calls)
     sum_band     :      0.21s CPU      0.22s WALL (       7 calls)
     v_of_rho     :      0.05s CPU      0.05s WALL (       7 calls)
     newd         :      0.13s CPU      0.13s WALL (       7 calls)
     PAW_pot      :      1.23s CPU      1.25s WALL (       7 calls)
     mix_rho      :      0.00s CPU      0.00s WALL (       7 calls)

     Called by c_bands:
     init_us_2    :      0.02s CPU      0.02s WALL (     272 calls)
     cegterg      :      0.52s CPU      0.53s WALL (     112 calls)

     Called by *egterg:
     cdiaghg      :      0.03s CPU      0.03s WALL (     358 calls)
     h_psi        :      0.42s CPU      0.42s WALL (     390 calls)
     s_psi        :      0.02s CPU      0.02s WALL (     390 calls)
     g_psi        :      0.00s CPU      0.00s WALL (     262 calls)

     Called by h_psi:
     h_psi:calbec :      0.03s CPU      0.03s WALL (     390 calls)
     vloc_psi     :      0.37s CPU      0.38s WALL (     390 calls)
                                        0.00s GPU  (     390 calls)
     add_vuspsi   :      0.02s CPU      0.02s WALL (     390 calls)

     General routines
     calbec       :      0.06s CPU      0.06s WALL (     774 calls)
     fft          :      0.03s CPU      0.03s WALL (     115 calls)
     ffts         :      0.00s CPU      0.00s WALL (      14 calls)
     fftw         :      0.40s CPU      0.41s WALL (    6926 calls)
     interpolate  :      0.00s CPU      0.00s WALL (       7 calls)

     Parallel routines

     PWSCF        :      2.88s CPU      2.95s WALL


   This run was terminated on:  16:11:22  15Mar2026            

=------------------------------------------------------------------------------=
   JOB DONE.
=------------------------------------------------------------------------------=
