
     Program PWSCF v.7.5 starts on 15Mar2026 at 15:54:54 

     This program is part of the open-source Quantum ESPRESSO suite
     for quantum simulation of materials; please cite
         "P. Giannozzi et al., J. Phys.:Condens. Matter 21 395502 (2009);
         "P. Giannozzi et al., J. Phys.:Condens. Matter 29 465901 (2017);
         "P. Giannozzi et al., J. Chem. Phys. 152 154105 (2020);
          URL http://www.quantum-espresso.org", 
     in publications or presentations arising from this work. More details at
     http://www.quantum-espresso.org/quote

     Parallel version (MPI), running on     1 processors

     MPI processes distributed on     1 nodes
     3431 MiB available memory on the printing compute node when the environment starts

     Reading input from espresso.pwi
Warning: card &CELL ignored
Warning: card &FCP ignored
Warning: card &RISM ignored

     Current dimensions of program PWSCF are:
     Max number of different atomic species (ntypx) = 10
     Max number of k-points (npk) =  40000
     Max angular momentum in pseudopotentials (lmaxx) =  4
     file Fe.pbe-spn-kjpaw_psl.1.0.0.UPF: wavefunction(s)  3P 3D renormalized
     Message from routine setup:
     using ibrav=0 with symmetry is DISCOURAGED, use correct ibrav instead

     Subspace diagonalization in iterative solution of the eigenvalue problem:
     a serial algorithm will be used


     G-vector sticks info
     --------------------
     sticks:   dense  smooth     PW     G-vecs:    dense   smooth      PW
     Sum         503     259    117                 7127     2531     739

     Using Slab Decomposition



     bravais-lattice index     =            0
     lattice parameter (alat)  =       4.6073  a.u.
     unit-cell volume          =      74.5345 (a.u.)^3
     number of atoms/cell      =            1
     number of atomic types    =            1
     number of electrons       =        16.00
     number of Kohn-Sham states=           12
     kinetic-energy cutoff     =      40.0000  Ry
     charge density cutoff     =     320.0000  Ry
     scf convergence threshold =      1.0E-06
     mixing beta               =       0.7000
     number of iterations used =            8  plain     mixing
     Exchange-correlation= SLA  PW   PBX  PBC
                           (   1   4   3   4   0   0   0)

     celldm(1)=   4.607264  celldm(2)=   0.000000  celldm(3)=   0.000000
     celldm(4)=   0.000000  celldm(5)=   0.000000  celldm(6)=   0.000000

     crystal axes: (cart. coord. in units of alat)
               a(1) = (  -0.581180   0.575426   0.575426 )  
               a(2) = (   0.575426  -0.575426   0.575426 )  
               a(3) = (   0.575426   0.575426  -0.575426 )  

     reciprocal axes: (cart. coord. in units 2 pi/alat)
               b(1) = (  0.000000  0.868922  0.868922 )  
               b(2) = (  0.868922  0.004345  0.873266 )  
               b(3) = (  0.868922  0.873266  0.004345 )  


     PseudoPot. # 1 for Fe read from file:
     /home/kenobi/Workspaces/PHYS400/pseudopotentials/Fe.pbe-spn-kjpaw_psl.1.0.0.UPF
     MD5 check sum: fc81f059e5c5069939230b1155715ae8
     Pseudo is Projector augmented-wave + core cor, Zval = 16.0
     Generated using &quot;atomic&quot; code by A. Dal Corso  v.6.3
     Shape of augmentation charge: PSQ
     Using radial grid of 1191 points,  6 beta functions with: 
                l(1) =   0
                l(2) =   0
                l(3) =   1
                l(4) =   1
                l(5) =   2
                l(6) =   2
     Q(r) pseudized with 0 coefficients 


     atomic species   valence    mass     pseudopotential
     Fe               16.00    55.84500     Fe( 1.00)

     Starting magnetic structure 
     atomic species   magnetization
     Fe              0.144

      4 Sym. Ops., with inversion, found



   Cartesian axes

     site n.     atom                  positions (alat units)
         1        Fe     tau(   1) = (   0.0000000   0.0000000   0.0000000  )

     number of k points=    68  Marzari-Vanderbilt smearing, width (Ry)=  0.0200
                       cart. coord. in units 2pi/alat
        k(    1) = (   0.0000000   0.0000000   0.0000000), wk =   0.0046296
        k(    2) = (   0.1448203   0.1455444   0.0007241), wk =   0.0185185
        k(    3) = (   0.2896406   0.2910888   0.0014482), wk =   0.0185185
        k(    4) = (  -0.4344609  -0.4366332  -0.0021723), wk =   0.0092593
        k(    5) = (   0.2896406   0.1462685   0.1462685), wk =   0.0092593
        k(    6) = (   0.4344609   0.2918129   0.1469926), wk =   0.0185185
        k(    7) = (  -0.2896406  -0.4359091   0.1433721), wk =   0.0185185
        k(    8) = (  -0.1448203  -0.2903647   0.1440962), wk =   0.0185185
        k(    9) = (   0.0000000  -0.1448203   0.1448203), wk =   0.0092593
        k(   10) = (   0.5792812   0.2925370   0.2925370), wk =   0.0092593
        k(   11) = (  -0.1448203  -0.4351850   0.2889165), wk =   0.0185185
        k(   12) = (  -0.0000000  -0.2896406   0.2896406), wk =   0.0092593
        k(   13) = (  -0.8689217  -0.4388055  -0.4388055), wk =   0.0046296
        k(   14) = (   0.0000000   0.1448203   0.1448203), wk =   0.0092593
        k(   15) = (   0.1448203   0.2903647   0.1455444), wk =   0.0185185
        k(   16) = (   0.2896406   0.4359091   0.1462685), wk =   0.0185185
        k(   17) = (  -0.4344609  -0.2918129   0.1426480), wk =   0.0185185
        k(   18) = (  -0.2896406  -0.1462685   0.1433721), wk =   0.0185185
        k(   19) = (  -0.1448203  -0.0007241   0.1440962), wk =   0.0185185
        k(   20) = (   0.2896406   0.2910888   0.2910888), wk =   0.0092593
        k(   21) = (   0.4344609   0.4366332   0.2918129), wk =   0.0185185
        k(   22) = (  -0.2896406  -0.2910888   0.2881924), wk =   0.0185185
        k(   23) = (  -0.1448203  -0.1455444   0.2889165), wk =   0.0185185
        k(   24) = (   0.0000000   0.0000000   0.2896406), wk =   0.0185185
        k(   25) = (   0.5792812   0.4373573   0.4373573), wk =   0.0092593
        k(   26) = (  -0.1448203  -0.2903647   0.4337368), wk =   0.0185185
        k(   27) = (  -0.0000000  -0.1448203   0.4344609), wk =   0.0185185
        k(   28) = (   0.1448203   0.0007241   0.4351850), wk =   0.0185185
        k(   29) = (  -0.8689217  -0.2939852  -0.2939852), wk =   0.0092593
        k(   30) = (  -0.7241015  -0.1484408  -0.2932611), wk =   0.0185185
        k(   31) = (  -0.5792812  -0.0028964  -0.2925370), wk =   0.0185185
        k(   32) = (  -0.5792812  -0.1477167  -0.1477167), wk =   0.0092593
        k(   33) = (  -0.4344609  -0.0021723  -0.1469926), wk =   0.0185185
        k(   34) = (  -0.2896406  -0.0014482  -0.0014482), wk =   0.0092593
        k(   35) = (   0.0000000   0.2896406   0.2896406), wk =   0.0092593
        k(   36) = (   0.1448203   0.4351850   0.2903647), wk =   0.0185185
        k(   37) = (   0.2896406   0.5807294   0.2910888), wk =   0.0185185
        k(   38) = (  -0.4344609  -0.1469926   0.2874683), wk =   0.0185185
        k(   39) = (  -0.2896406  -0.0014482   0.2881924), wk =   0.0185185
        k(   40) = (  -0.1448203   0.1440962   0.2889165), wk =   0.0185185
        k(   41) = (   0.2896406   0.4359091   0.4359091), wk =   0.0092593
        k(   42) = (   0.4344609   0.5814535   0.4366332), wk =   0.0185185
        k(   43) = (  -0.2896406  -0.1462685   0.4330127), wk =   0.0185185
        k(   44) = (  -0.1448203  -0.0007241   0.4337368), wk =   0.0185185
        k(   45) = (   0.0000000   0.1448203   0.4344609), wk =   0.0185185
        k(   46) = (   0.5792812   0.5821776   0.5821776), wk =   0.0092593
        k(   47) = (  -0.1448203  -0.1455444   0.5785571), wk =   0.0185185
        k(   48) = (  -0.0000000   0.0000000   0.5792812), wk =   0.0185185
        k(   49) = (   0.1448203   0.1455444   0.5800053), wk =   0.0185185
        k(   50) = (  -0.8689217  -0.1491649  -0.1491649), wk =   0.0092593
        k(   51) = (  -0.7241015  -0.0036205  -0.1484408), wk =   0.0185185
        k(   52) = (  -0.5792812   0.1419239  -0.1477167), wk =   0.0185185
        k(   53) = (  -0.5792812  -0.0028964  -0.0028964), wk =   0.0092593
        k(   54) = (  -0.4344609   0.1426480  -0.0021723), wk =   0.0185185
        k(   55) = (  -0.2896406   0.1433721   0.1433721), wk =   0.0092593
        k(   56) = (   0.0000000  -0.4344609  -0.4344609), wk =   0.0046296
        k(   57) = (   0.1448203  -0.2889165  -0.4337368), wk =   0.0185185
        k(   58) = (   0.2896406  -0.1433721  -0.4330127), wk =   0.0185185
        k(   59) = (  -0.4344609  -0.8710940  -0.4366332), wk =   0.0092593
        k(   60) = (   0.2896406  -0.2881924  -0.2881924), wk =   0.0092593
        k(   61) = (   0.4344609  -0.1426480  -0.2874683), wk =   0.0185185
        k(   62) = (  -0.2896406  -0.8703699  -0.2910888), wk =   0.0185185
        k(   63) = (  -0.1448203  -0.7248256  -0.2903647), wk =   0.0185185
        k(   64) = (   0.0000000  -0.5792812  -0.2896406), wk =   0.0092593
        k(   65) = (   0.5792812  -0.1419239  -0.1419239), wk =   0.0092593
        k(   66) = (  -0.1448203  -0.8696458  -0.1455444), wk =   0.0185185
        k(   67) = (  -0.0000000  -0.7241015  -0.1448203), wk =   0.0092593
        k(   68) = (  -0.8689217  -0.8732664  -0.8732664), wk =   0.0046296

     Dense  grid:     7127 G-vectors     FFT dimensions: (  27,  27,  27)

     Smooth grid:     2531 G-vectors     FFT dimensions: (  20,  20,  20)

     Estimated max dynamical RAM per process >      38.73 MB

     Check: negative core charge=   -0.000010
     Generating pointlists ...
     new r_m :   0.4098 (alat units)  1.8879 (a.u.) for type    1

     Initial potential from superposition of free atoms

     starting charge      15.9996, renormalised to      16.0000
     Starting wfcs are   10 randomized atomic wfcs +    2 random wfcs
     Checking if some PAW data can be deallocated... 

     total cpu time spent up to now is        1.2 secs

     Self-consistent Calculation

     iteration #  1     ecut=    40.00 Ry     beta= 0.70
     Davidson diagonalization with overlap
     ethr =  1.00E-02,  avg # of iterations =  3.9

     Threshold (ethr) on eigenvalues was too large:
     Diagonalizing with lowered threshold

     Davidson diagonalization with overlap
     ethr =  3.87E-04,  avg # of iterations =  1.4

     negative rho (up, down):  0.000E+00 1.025E-04

     total cpu time spent up to now is        3.7 secs

     total energy              =    -329.02368849 Ry
     estimated scf accuracy    <       0.06465562 Ry

     total magnetization       =     2.18 Bohr mag/cell
     absolute magnetization    =     2.18 Bohr mag/cell

     iteration #  2     ecut=    40.00 Ry     beta= 0.70
     Davidson diagonalization with overlap
     ethr =  4.04E-04,  avg # of iterations =  2.7

     negative rho (up, down):  0.000E+00 1.004E-04

     total cpu time spent up to now is        5.3 secs

     total energy              =    -329.02910811 Ry
     estimated scf accuracy    <       0.15062991 Ry

     total magnetization       =     2.21 Bohr mag/cell
     absolute magnetization    =     2.27 Bohr mag/cell

     iteration #  3     ecut=    40.00 Ry     beta= 0.70
     Davidson diagonalization with overlap
     ethr =  4.04E-04,  avg # of iterations =  2.0

     negative rho (up, down):  0.000E+00 3.321E-04

     total cpu time spent up to now is        6.8 secs

     total energy              =    -329.05795286 Ry
     estimated scf accuracy    <       0.00093691 Ry

     total magnetization       =     2.19 Bohr mag/cell
     absolute magnetization    =     2.25 Bohr mag/cell

     iteration #  4     ecut=    40.00 Ry     beta= 0.70
     Davidson diagonalization with overlap
     ethr =  5.86E-06,  avg # of iterations =  3.0

     negative rho (up, down):  0.000E+00 3.519E-04

     total cpu time spent up to now is        8.4 secs

     total energy              =    -329.05842535 Ry
     estimated scf accuracy    <       0.00012532 Ry

     total magnetization       =     2.19 Bohr mag/cell
     absolute magnetization    =     2.28 Bohr mag/cell

     iteration #  5     ecut=    40.00 Ry     beta= 0.70
     Davidson diagonalization with overlap
     ethr =  7.83E-07,  avg # of iterations =  2.0

     negative rho (up, down):  0.000E+00 3.526E-04

     total cpu time spent up to now is        9.8 secs

     total energy              =    -329.05848277 Ry
     estimated scf accuracy    <       0.00002675 Ry

     total magnetization       =     2.19 Bohr mag/cell
     absolute magnetization    =     2.30 Bohr mag/cell

     iteration #  6     ecut=    40.00 Ry     beta= 0.70
     Davidson diagonalization with overlap
     ethr =  1.67E-07,  avg # of iterations =  1.5

     negative rho (up, down):  0.000E+00 3.540E-04

     Magnetic moment per site  (integrated on atomic sphere of radius R)
     atom   1 (R=0.410)  charge= 14.3434  magn=  2.2293

     total cpu time spent up to now is       11.2 secs

     End of self-consistent calculation

     Number of k-points >= 100: set verbosity='high' to print the bands.

     the Fermi energy is    19.0580 ev

!    total energy              =    -329.05849034 Ry
     total all-electron energy =     -2545.355023 Ry
     estimated scf accuracy    <       0.00000036 Ry
     smearing contrib. (-TS)   =       0.00154667 Ry
     internal energy E=F+TS    =    -329.06003701 Ry

     The total energy is F=E-TS. E is the sum of the following terms:
     one-electron contribution =    -106.62895709 Ry
     hartree contribution      =      63.78450741 Ry
     xc contribution           =     -27.76204766 Ry
     ewald contribution        =    -175.70543429 Ry
     one-center paw contrib.   =     -82.74810539 Ry

     total magnetization       =     2.19 Bohr mag/cell
     absolute magnetization    =     2.30 Bohr mag/cell

     convergence has been achieved in   6 iterations

     negative rho (up, down):  0.000E+00 3.540E-04

     Forces acting on atoms (cartesian axes, Ry/au):

     atom    1 type  1   force =     0.00000000    0.00000000    0.00000000

     Total force =     0.000000     Total SCF correction =     0.000000


     Computing stress (Cartesian axis) and pressure


     negative rho (up, down):  0.000E+00 3.540E-04
          total   stress  (Ry/bohr**3)                   (kbar)     P=    -2659.89
  -0.01806443   0.00008544   0.00008544        -2657.37       12.57       12.57
   0.00008544  -0.01809009   0.00002337           12.57    -2661.14        3.44
   0.00008544   0.00002337  -0.01809009           12.57        3.44    -2661.14


     Writing all to output data dir ./pwscf.save/ :
     XML data file, charge density, pseudopotentials, collected wavefunctions

     init_run     :      1.01s CPU      1.07s WALL (       1 calls)
     electrons    :      9.63s CPU      9.96s WALL (       1 calls)
     forces       :      0.12s CPU      0.12s WALL (       1 calls)
     stress       :      0.51s CPU      0.51s WALL (       1 calls)

     Called by init_run:
     wfcinit      :      0.31s CPU      0.32s WALL (       1 calls)
     potinit      :      0.41s CPU      0.45s WALL (       1 calls)
     hinit0       :      0.26s CPU      0.26s WALL (       1 calls)

     Called by electrons:
     c_bands      :      6.01s CPU      6.08s WALL (       7 calls)
     sum_band     :      1.19s CPU      1.20s WALL (       7 calls)
     v_of_rho     :      0.11s CPU      0.11s WALL (       7 calls)
     newd         :      0.13s CPU      0.18s WALL (       7 calls)
     PAW_pot      :      2.58s CPU      2.83s WALL (       7 calls)
     mix_rho      :      0.01s CPU      0.01s WALL (       7 calls)

     Called by c_bands:
     init_us_2    :      0.13s CPU      0.13s WALL (    2312 calls)
     cegterg      :      5.81s CPU      5.88s WALL (     952 calls)

     Called by *egterg:
     cdiaghg      :      0.36s CPU      0.36s WALL (    3075 calls)
     h_psi        :      4.55s CPU      4.61s WALL (    3347 calls)
     s_psi        :      0.19s CPU      0.19s WALL (    3347 calls)
     g_psi        :      0.02s CPU      0.02s WALL (    2259 calls)

     Called by h_psi:
     h_psi:calbec :      0.25s CPU      0.25s WALL (    3347 calls)
     vloc_psi     :      4.10s CPU      4.16s WALL (    3347 calls)
                                        0.00s GPU  (    3347 calls)
     add_vuspsi   :      0.19s CPU      0.19s WALL (    3347 calls)

     General routines
     calbec       :      0.58s CPU      0.58s WALL (    6611 calls)
     fft          :      0.06s CPU      0.06s WALL (     215 calls)
     ffts         :      0.00s CPU      0.00s WALL (      28 calls)
     fftw         :      4.49s CPU      4.55s WALL (   70408 calls)
     interpolate  :      0.01s CPU      0.01s WALL (      14 calls)

     Parallel routines

     PWSCF        :     11.40s CPU     11.81s WALL


   This run was terminated on:  15:55: 6  15Mar2026            

=------------------------------------------------------------------------------=
   JOB DONE.
=------------------------------------------------------------------------------=
