
     Program PWSCF v.7.5 starts on 15Mar2026 at 15:55:23 

     This program is part of the open-source Quantum ESPRESSO suite
     for quantum simulation of materials; please cite
         "P. Giannozzi et al., J. Phys.:Condens. Matter 21 395502 (2009);
         "P. Giannozzi et al., J. Phys.:Condens. Matter 29 465901 (2017);
         "P. Giannozzi et al., J. Chem. Phys. 152 154105 (2020);
          URL http://www.quantum-espresso.org", 
     in publications or presentations arising from this work. More details at
     http://www.quantum-espresso.org/quote

     Parallel version (MPI), running on     1 processors

     MPI processes distributed on     1 nodes
     3428 MiB available memory on the printing compute node when the environment starts

     Reading input from espresso.pwi
Warning: card &CELL ignored
Warning: card &FCP ignored
Warning: card &RISM ignored

     Current dimensions of program PWSCF are:
     Max number of different atomic species (ntypx) = 10
     Max number of k-points (npk) =  40000
     Max angular momentum in pseudopotentials (lmaxx) =  4
     file Mn.pbe-spn-kjpaw_psl.0.3.1.UPF: wavefunction(s)  3P 3D renormalized
     Message from routine setup:
     using ibrav=0 with symmetry is DISCOURAGED, use correct ibrav instead

     Subspace diagonalization in iterative solution of the eigenvalue problem:
     a serial algorithm will be used


     G-vector sticks info
     --------------------
     sticks:   dense  smooth     PW     G-vecs:    dense   smooth      PW
     Sum        4695    2351    723               203907    72109   12215

     Using Slab Decomposition



     bravais-lattice index     =            0
     lattice parameter (alat)  =      13.9984  a.u.
     unit-cell volume          =    2111.6086 (a.u.)^3
     number of atoms/cell      =            1
     number of atomic types    =            1
     number of electrons       =        15.00
     number of Kohn-Sham states=           12
     kinetic-energy cutoff     =      40.0000  Ry
     charge density cutoff     =     320.0000  Ry
     scf convergence threshold =      1.0E-06
     mixing beta               =       0.7000
     number of iterations used =            8  plain     mixing
     Exchange-correlation= SLA  PW   PBX  PBC
                           (   1   4   3   4   0   0   0)

     celldm(1)=  13.998401  celldm(2)=   0.000000  celldm(3)=   0.000000
     celldm(4)=   0.000000  celldm(5)=   0.000000  celldm(6)=   0.000000

     crystal axes: (cart. coord. in units of alat)
               a(1) = (  -0.577350   0.577350   0.577350 )  
               a(2) = (   0.577350  -0.577350   0.577350 )  
               a(3) = (   0.577350   0.577350  -0.577350 )  

     reciprocal axes: (cart. coord. in units 2 pi/alat)
               b(1) = (  0.000000  0.866025  0.866025 )  
               b(2) = (  0.866025  0.000000  0.866025 )  
               b(3) = (  0.866025  0.866025  0.000000 )  


     PseudoPot. # 1 for Mn read from file:
     /home/kenobi/Workspaces/PHYS400/pseudopotentials/Mn.pbe-spn-kjpaw_psl.0.3.1.UPF
     MD5 check sum: ba19e6d7ccbc12830efad05ba8577d9c
     Pseudo is Projector augmented-wave + core cor, Zval = 15.0
     Generated using &quot;atomic&quot; code by A. Dal Corso  v.6.2.2
     Shape of augmentation charge: PSQ
     Using radial grid of 1187 points,  6 beta functions with: 
                l(1) =   0
                l(2) =   0
                l(3) =   1
                l(4) =   1
                l(5) =   2
                l(6) =   2
     Q(r) pseudized with 0 coefficients 


     atomic species   valence    mass     pseudopotential
     Mn               15.00    54.93804     Mn( 1.00)

     Starting magnetic structure 
     atomic species   magnetization
     Mn              0.000

     48 Sym. Ops., with inversion, found



   Cartesian axes

     site n.     atom                  positions (alat units)
         1        Mn     tau(   1) = (   0.0000000   0.0000000   0.0000000  )

     number of k points=    16  Marzari-Vanderbilt smearing, width (Ry)=  0.0200
                       cart. coord. in units 2pi/alat
        k(    1) = (   0.0000000   0.0000000   0.0000000), wk =   0.0046296
        k(    2) = (   0.1443376   0.1443376   0.0000000), wk =   0.0555556
        k(    3) = (   0.2886751   0.2886751   0.0000000), wk =   0.0555556
        k(    4) = (  -0.4330127  -0.4330127   0.0000000), wk =   0.0277778
        k(    5) = (   0.2886751   0.1443376   0.1443376), wk =   0.1111111
        k(    6) = (   0.4330127   0.2886751   0.1443376), wk =   0.2222222
        k(    7) = (   0.5773503   0.2886751   0.2886751), wk =   0.0370370
        k(    8) = (   0.2886751   0.2886751   0.2886751), wk =   0.0370370
        k(    9) = (   0.4330127   0.4330127   0.2886751), wk =   0.0555556
        k(   10) = (   0.0000000   0.0000000   0.2886751), wk =   0.0277778
        k(   11) = (  -0.0000000  -0.1443376   0.4330127), wk =   0.1111111
        k(   12) = (  -0.8660254  -0.2886751  -0.2886751), wk =   0.0555556
        k(   13) = (  -0.7216878  -0.1443376  -0.2886751), wk =   0.1111111
        k(   14) = (  -0.0000000  -0.0000000   0.5773503), wk =   0.0277778
        k(   15) = (  -0.8660254  -0.1443376  -0.1443376), wk =   0.0555556
        k(   16) = (  -0.8660254  -0.8660254  -0.8660254), wk =   0.0046296

     Dense  grid:   203907 G-vectors     FFT dimensions: (  80,  80,  80)

     Smooth grid:    72109 G-vectors     FFT dimensions: (  60,  60,  60)

     Estimated max dynamical RAM per process >     889.17 MB

     Check: negative core charge=   -0.000006
     Generating pointlists ...
     new r_m :   0.4125 (alat units)  5.7743 (a.u.) for type    1

     Initial potential from superposition of free atoms

     starting charge      14.9995, renormalised to      15.0000

     negative rho (up, down):  8.350E-07 8.350E-07
     Starting wfcs are   10 randomized atomic wfcs +    2 random wfcs
     Checking if some PAW data can be deallocated... 

     total cpu time spent up to now is        4.5 secs

     Self-consistent Calculation

     iteration #  1     ecut=    40.00 Ry     beta= 0.70
     Davidson diagonalization with overlap
     ethr =  1.00E-02,  avg # of iterations =  7.5

     negative rho (up, down):  3.188E-05 3.167E-05

     total cpu time spent up to now is       15.4 secs

     total energy              =    -285.04066714 Ry
     estimated scf accuracy    <       1.27367458 Ry

     total magnetization       =     0.02 Bohr mag/cell
     absolute magnetization    =     0.02 Bohr mag/cell

     iteration #  2     ecut=    40.00 Ry     beta= 0.70
     Davidson diagonalization with overlap
     ethr =  8.49E-03,  avg # of iterations =  8.9

     total cpu time spent up to now is       30.0 secs

     total energy              =    -284.61299344 Ry
     estimated scf accuracy    <      22.00377965 Ry

     total magnetization       =     0.19 Bohr mag/cell
     absolute magnetization    =     0.19 Bohr mag/cell

     iteration #  3     ecut=    40.00 Ry     beta= 0.70
     Davidson diagonalization with overlap
     ethr =  8.49E-03,  avg # of iterations =  5.3

     total cpu time spent up to now is       42.1 secs

     total energy              =    -285.80890847 Ry
     estimated scf accuracy    <       0.54513210 Ry

     total magnetization       =    -0.19 Bohr mag/cell
     absolute magnetization    =     0.20 Bohr mag/cell

     iteration #  4     ecut=    40.00 Ry     beta= 0.70
     Davidson diagonalization with overlap
     ethr =  3.63E-03,  avg # of iterations =  5.0

     total cpu time spent up to now is       52.3 secs

     total energy              =    -285.89163865 Ry
     estimated scf accuracy    <       0.01764377 Ry

     total magnetization       =    -0.70 Bohr mag/cell
     absolute magnetization    =     0.70 Bohr mag/cell

     iteration #  5     ecut=    40.00 Ry     beta= 0.70
     Davidson diagonalization with overlap
     ethr =  1.18E-04,  avg # of iterations =  6.3

     total cpu time spent up to now is       63.9 secs

     total energy              =    -285.89686072 Ry
     estimated scf accuracy    <       0.03533764 Ry

     total magnetization       =    -1.36 Bohr mag/cell
     absolute magnetization    =     1.36 Bohr mag/cell

     iteration #  6     ecut=    40.00 Ry     beta= 0.70
     Davidson diagonalization with overlap
     ethr =  1.18E-04,  avg # of iterations =  1.4

     total cpu time spent up to now is       72.7 secs

     total energy              =    -285.89294913 Ry
     estimated scf accuracy    <       0.10485771 Ry

     total magnetization       =    -0.01 Bohr mag/cell
     absolute magnetization    =     0.13 Bohr mag/cell

     iteration #  7     ecut=    40.00 Ry     beta= 0.70
     Davidson diagonalization with overlap
     ethr =  1.18E-04,  avg # of iterations =  1.3

     total cpu time spent up to now is       81.4 secs

     total energy              =    -285.90908932 Ry
     estimated scf accuracy    <       0.09658932 Ry

     total magnetization       =    -0.08 Bohr mag/cell
     absolute magnetization    =     0.36 Bohr mag/cell

     iteration #  8     ecut=    40.00 Ry     beta= 0.70
     Davidson diagonalization with overlap
     ethr =  1.18E-04,  avg # of iterations =  1.5

     total cpu time spent up to now is       90.0 secs

     total energy              =    -285.90205243 Ry
     estimated scf accuracy    <       0.41019394 Ry

     total magnetization       =    -0.14 Bohr mag/cell
     absolute magnetization    =     0.14 Bohr mag/cell

     iteration #  9     ecut=    40.00 Ry     beta= 0.70
     Davidson diagonalization with overlap
     ethr =  1.18E-04,  avg # of iterations =  1.0

     total cpu time spent up to now is       98.4 secs

     total energy              =    -285.90175585 Ry
     estimated scf accuracy    <       0.12319009 Ry

     total magnetization       =    -0.08 Bohr mag/cell
     absolute magnetization    =     0.09 Bohr mag/cell

     iteration # 10     ecut=    40.00 Ry     beta= 0.70
     Davidson diagonalization with overlap
     ethr =  1.18E-04,  avg # of iterations =  1.2

     total cpu time spent up to now is      107.3 secs

     total energy              =    -285.89748931 Ry
     estimated scf accuracy    <       0.04802022 Ry

     total magnetization       =     0.03 Bohr mag/cell
     absolute magnetization    =     0.06 Bohr mag/cell

     iteration # 11     ecut=    40.00 Ry     beta= 0.70
     Davidson diagonalization with overlap
     ethr =  1.18E-04,  avg # of iterations =  1.0

     total cpu time spent up to now is      117.9 secs

     total energy              =    -285.90087346 Ry
     estimated scf accuracy    <       0.03936690 Ry

     total magnetization       =     0.16 Bohr mag/cell
     absolute magnetization    =     0.16 Bohr mag/cell

     iteration # 12     ecut=    40.00 Ry     beta= 0.70
     Davidson diagonalization with overlap
     ethr =  1.18E-04,  avg # of iterations =  1.0

     total cpu time spent up to now is      127.6 secs

     total energy              =    -285.90303129 Ry
     estimated scf accuracy    <       0.00642924 Ry

     total magnetization       =     0.21 Bohr mag/cell
     absolute magnetization    =     0.21 Bohr mag/cell

     iteration # 13     ecut=    40.00 Ry     beta= 0.70
     Davidson diagonalization with overlap
     ethr =  4.29E-05,  avg # of iterations =  1.2

     total cpu time spent up to now is      137.0 secs

     total energy              =    -285.90342490 Ry
     estimated scf accuracy    <       0.15699933 Ry

     total magnetization       =     0.19 Bohr mag/cell
     absolute magnetization    =     0.19 Bohr mag/cell

     iteration # 14     ecut=    40.00 Ry     beta= 0.70
     Davidson diagonalization with overlap
     ethr =  4.29E-05,  avg # of iterations =  1.0

     total cpu time spent up to now is      146.2 secs

     total energy              =    -285.90131239 Ry
     estimated scf accuracy    <       0.06321375 Ry

     total magnetization       =     0.20 Bohr mag/cell
     absolute magnetization    =     0.20 Bohr mag/cell

     iteration # 15     ecut=    40.00 Ry     beta= 0.70
     Davidson diagonalization with overlap
     ethr =  4.29E-05,  avg # of iterations =  1.2

     total cpu time spent up to now is      155.5 secs

     total energy              =    -285.90348118 Ry
     estimated scf accuracy    <       0.00143109 Ry

     total magnetization       =     0.20 Bohr mag/cell
     absolute magnetization    =     0.23 Bohr mag/cell

     iteration # 16     ecut=    40.00 Ry     beta= 0.70
     Davidson diagonalization with overlap
     ethr =  9.54E-06,  avg # of iterations =  2.7

     total cpu time spent up to now is      166.0 secs

     total energy              =    -285.90874105 Ry
     estimated scf accuracy    <       0.06794013 Ry

     total magnetization       =    -0.21 Bohr mag/cell
     absolute magnetization    =     0.44 Bohr mag/cell

     iteration # 17     ecut=    40.00 Ry     beta= 0.70
     Davidson diagonalization with overlap
     ethr =  9.54E-06,  avg # of iterations =  2.0

     total cpu time spent up to now is      176.2 secs

     total energy              =    -285.89785072 Ry
     estimated scf accuracy    <       0.19360421 Ry

     total magnetization       =    -0.36 Bohr mag/cell
     absolute magnetization    =     0.37 Bohr mag/cell

     iteration # 18     ecut=    40.00 Ry     beta= 0.70
     Davidson diagonalization with overlap
     ethr =  9.54E-06,  avg # of iterations =  3.0

     total cpu time spent up to now is      187.4 secs

     total energy              =    -285.90301620 Ry
     estimated scf accuracy    <       0.00036132 Ry

     total magnetization       =     0.20 Bohr mag/cell
     absolute magnetization    =     0.20 Bohr mag/cell

     iteration # 19     ecut=    40.00 Ry     beta= 0.70
     Davidson diagonalization with overlap
     ethr =  2.41E-06,  avg # of iterations =  2.2

     total cpu time spent up to now is      196.7 secs

     total energy              =    -285.90320611 Ry
     estimated scf accuracy    <       0.00270249 Ry

     total magnetization       =     0.50 Bohr mag/cell
     absolute magnetization    =     0.50 Bohr mag/cell

     iteration # 20     ecut=    40.00 Ry     beta= 0.70
     Davidson diagonalization with overlap
     ethr =  2.41E-06,  avg # of iterations =  1.0

     negative rho (up, down):  1.036E-07 6.892E-08

     total cpu time spent up to now is      206.2 secs

     total energy              =    -285.90322735 Ry
     estimated scf accuracy    <       0.00213439 Ry

     total magnetization       =     0.47 Bohr mag/cell
     absolute magnetization    =     0.47 Bohr mag/cell

     iteration # 21     ecut=    40.00 Ry     beta= 0.70
     Davidson diagonalization with overlap
     ethr =  2.41E-06,  avg # of iterations =  1.0

     total cpu time spent up to now is      215.7 secs

     total energy              =    -285.90263271 Ry
     estimated scf accuracy    <       0.00368747 Ry

     total magnetization       =     0.46 Bohr mag/cell
     absolute magnetization    =     0.46 Bohr mag/cell

     iteration # 22     ecut=    40.00 Ry     beta= 0.70
     Davidson diagonalization with overlap
     ethr =  2.41E-06,  avg # of iterations =  1.5

     total cpu time spent up to now is      229.9 secs

     total energy              =    -285.90281556 Ry
     estimated scf accuracy    <       0.00315837 Ry

     total magnetization       =     0.01 Bohr mag/cell
     absolute magnetization    =     0.06 Bohr mag/cell

     iteration # 23     ecut=    40.00 Ry     beta= 0.70
     Davidson diagonalization with overlap
     ethr =  2.41E-06,  avg # of iterations =  1.0

     total cpu time spent up to now is      241.7 secs

     total energy              =    -285.90300175 Ry
     estimated scf accuracy    <       0.00039082 Ry

     total magnetization       =    -0.06 Bohr mag/cell
     absolute magnetization    =     0.06 Bohr mag/cell

     iteration # 24     ecut=    40.00 Ry     beta= 0.70
     Davidson diagonalization with overlap
     ethr =  2.41E-06,  avg # of iterations =  1.0

     total cpu time spent up to now is      253.7 secs

     total energy              =    -285.90301382 Ry
     estimated scf accuracy    <       0.00005637 Ry

     total magnetization       =    -0.06 Bohr mag/cell
     absolute magnetization    =     0.06 Bohr mag/cell

     iteration # 25     ecut=    40.00 Ry     beta= 0.70
     Davidson diagonalization with overlap
     ethr =  3.76E-07,  avg # of iterations =  1.0

     total cpu time spent up to now is      264.4 secs

     total energy              =    -285.90300160 Ry
     estimated scf accuracy    <       0.00028627 Ry

     total magnetization       =    -0.03 Bohr mag/cell
     absolute magnetization    =     0.04 Bohr mag/cell

     iteration # 26     ecut=    40.00 Ry     beta= 0.70
     Davidson diagonalization with overlap
     ethr =  3.76E-07,  avg # of iterations =  1.0

     total cpu time spent up to now is      273.5 secs

     total energy              =    -285.90299235 Ry
     estimated scf accuracy    <       0.00015699 Ry

     total magnetization       =     0.01 Bohr mag/cell
     absolute magnetization    =     0.02 Bohr mag/cell

     iteration # 27     ecut=    40.00 Ry     beta= 0.70
