
     Program PWSCF v.7.5 starts on 15Mar2026 at 15:55: 8 

     This program is part of the open-source Quantum ESPRESSO suite
     for quantum simulation of materials; please cite
         "P. Giannozzi et al., J. Phys.:Condens. Matter 21 395502 (2009);
         "P. Giannozzi et al., J. Phys.:Condens. Matter 29 465901 (2017);
         "P. Giannozzi et al., J. Chem. Phys. 152 154105 (2020);
          URL http://www.quantum-espresso.org", 
     in publications or presentations arising from this work. More details at
     http://www.quantum-espresso.org/quote

     Parallel version (MPI), running on     1 processors

     MPI processes distributed on     1 nodes
     3375 MiB available memory on the printing compute node when the environment starts

     Reading input from espresso.pwi
Warning: card &CELL ignored
Warning: card &FCP ignored
Warning: card &RISM ignored

     Current dimensions of program PWSCF are:
     Max number of different atomic species (ntypx) = 10
     Max number of k-points (npk) =  40000
     Max angular momentum in pseudopotentials (lmaxx) =  4
     file Mg.pbe-spnl-kjpaw_psl.1.0.0.UPF: wavefunction(s)  2P renormalized
     Message from routine setup:
     using ibrav=0 with symmetry is DISCOURAGED, use correct ibrav instead

     Subspace diagonalization in iterative solution of the eigenvalue problem:
     a serial algorithm will be used


     G-vector sticks info
     --------------------
     sticks:   dense  smooth     PW     G-vecs:    dense   smooth      PW
     Sum         769     379    121                14163     4957     941

     Using Slab Decomposition



     bravais-lattice index     =            0
     lattice parameter (alat)  =       5.9043  a.u.
     unit-cell volume          =     145.5397 (a.u.)^3
     number of atoms/cell      =            1
     number of atomic types    =            1
     number of electrons       =        10.00
     number of Kohn-Sham states=            9
     kinetic-energy cutoff     =      40.0000  Ry
     charge density cutoff     =     320.0000  Ry
     scf convergence threshold =      1.0E-06
     mixing beta               =       0.7000
     number of iterations used =            8  plain     mixing
     Exchange-correlation= SLA  PW   PBX  PBC
                           (   1   4   3   4   0   0   0)

     celldm(1)=   5.904260  celldm(2)=   0.000000  celldm(3)=   0.000000
     celldm(4)=   0.000000  celldm(5)=   0.000000  celldm(6)=   0.000000

     crystal axes: (cart. coord. in units of alat)
               a(1) = (   0.000000   0.707107   0.707107 )  
               a(2) = (   0.707107   0.000000   0.707107 )  
               a(3) = (   0.707107   0.707107   0.000000 )  

     reciprocal axes: (cart. coord. in units 2 pi/alat)
               b(1) = ( -0.707107  0.707107  0.707107 )  
               b(2) = (  0.707107 -0.707107  0.707107 )  
               b(3) = (  0.707107  0.707107 -0.707107 )  


     PseudoPot. # 1 for Mg read from file:
     /home/kenobi/Workspaces/PHYS400/pseudopotentials/Mg.pbe-spnl-kjpaw_psl.1.0.0.UPF
     MD5 check sum: fda14e0d92a6a9a5ebed782e5a4b3067
     Pseudo is Projector augmented-wave + core cor, Zval = 10.0
     Generated using &quot;atomic&quot; code by A. Dal Corso  v.6.3
     Shape of augmentation charge: PSQ
     Using radial grid of 1129 points,  4 beta functions with: 
                l(1) =   0
                l(2) =   0
                l(3) =   1
                l(4) =   1
     Q(r) pseudized with 0 coefficients 


     atomic species   valence    mass     pseudopotential
     Mg               10.00    24.30500     Mg( 1.00)

     48 Sym. Ops., with inversion, found



   Cartesian axes

     site n.     atom                  positions (alat units)
         1        Mg     tau(   1) = (   0.0000000   0.0000000   0.0000000  )

     number of k points=    16  Marzari-Vanderbilt smearing, width (Ry)=  0.0200
                       cart. coord. in units 2pi/alat
        k(    1) = (   0.0000000   0.0000000   0.0000000), wk =   0.0092593
        k(    2) = (   0.1178511   0.1178511  -0.1178511), wk =   0.0740741
        k(    3) = (   0.2357023   0.2357023  -0.2357023), wk =   0.0740741
        k(    4) = (  -0.3535534  -0.3535534   0.3535534), wk =   0.0370370
        k(    5) = (   0.2357023   0.0000000   0.0000000), wk =   0.0555556
        k(    6) = (   0.3535534   0.1178511  -0.1178511), wk =   0.2222222
        k(    7) = (  -0.2357023  -0.4714045   0.4714045), wk =   0.2222222
        k(    8) = (  -0.1178511  -0.3535534   0.3535534), wk =   0.2222222
        k(    9) = (   0.0000000  -0.2357023   0.2357023), wk =   0.1111111
        k(   10) = (   0.4714045   0.0000000   0.0000000), wk =   0.0555556
        k(   11) = (  -0.1178511  -0.5892557   0.5892557), wk =   0.2222222
        k(   12) = (  -0.0000000  -0.4714045   0.4714045), wk =   0.1111111
        k(   13) = (  -0.7071068   0.0000000   0.0000000), wk =   0.0277778
        k(   14) = (  -0.2357023  -0.4714045   0.7071068), wk =   0.2222222
        k(   15) = (  -0.1178511  -0.3535534   0.5892557), wk =   0.2222222
        k(   16) = (  -0.7071068   0.2357023   0.0000000), wk =   0.1111111

     Dense  grid:    14163 G-vectors     FFT dimensions: (  36,  36,  36)

     Smooth grid:     4957 G-vectors     FFT dimensions: (  24,  24,  24)

     Estimated max dynamical RAM per process >      21.77 MB

     Check: negative core charge=   -0.000015

     Initial potential from superposition of free atoms

     starting charge       9.9991, renormalised to      10.0000
     Starting wfcs are    5 randomized atomic wfcs +    4 random wfcs
     Checking if some PAW data can be deallocated... 

     total cpu time spent up to now is        0.4 secs

     Self-consistent Calculation

     iteration #  1     ecut=    40.00 Ry     beta= 0.70
     Davidson diagonalization with overlap
     ethr =  1.00E-02,  avg # of iterations =  5.8

     Threshold (ethr) on eigenvalues was too large:
     Diagonalizing with lowered threshold

     Davidson diagonalization with overlap
     ethr =  5.55E-05,  avg # of iterations =  3.4

     total cpu time spent up to now is        0.7 secs

     total energy              =    -141.34975025 Ry
     estimated scf accuracy    <       0.00574767 Ry

     iteration #  2     ecut=    40.00 Ry     beta= 0.70
     Davidson diagonalization with overlap
     ethr =  5.75E-05,  avg # of iterations =  1.8

     total cpu time spent up to now is        0.9 secs

     total energy              =    -141.35028314 Ry
     estimated scf accuracy    <       0.00036198 Ry

     iteration #  3     ecut=    40.00 Ry     beta= 0.70
     Davidson diagonalization with overlap
     ethr =  3.62E-06,  avg # of iterations =  3.0

     total cpu time spent up to now is        1.1 secs

     total energy              =    -141.35030792 Ry
     estimated scf accuracy    <       0.00001501 Ry

     iteration #  4     ecut=    40.00 Ry     beta= 0.70
     Davidson diagonalization with overlap
     ethr =  1.50E-07,  avg # of iterations =  3.8

     total cpu time spent up to now is        1.2 secs

     End of self-consistent calculation

          k = 0.0000 0.0000 0.0000 (   609 PWs)   bands (ev):

   -70.3381 -37.0293 -37.0293 -37.0293  -1.2304  18.6298  18.6298  18.6299
    21.0322

          k = 0.1179 0.1179-0.1179 (   610 PWs)   bands (ev):

   -70.3371 -37.0327 -37.0327 -37.0313  -0.5899  13.7410  17.8769  17.8769
    20.3555

          k = 0.2357 0.2357-0.2357 (   613 PWs)   bands (ev):

   -70.3352 -37.0697 -37.0330 -37.0330   1.3000   8.5891  17.3903  17.3903
    19.7790

          k =-0.3536-0.3536 0.3536 (   610 PWs)   bands (ev):

   -70.3343 -37.0725 -37.0311 -37.0311   4.0996   4.6999  17.4877  17.4878
    18.7248

          k = 0.2357 0.0000 0.0000 (   605 PWs)   bands (ev):

   -70.3368 -37.0363 -37.0251 -37.0251  -0.3714  15.4215  16.0103  16.0103
    18.0825

          k = 0.3536 0.1179-0.1179 (   617 PWs)   bands (ev):

   -70.3353 -37.0630 -37.0398 -37.0379   1.0906  10.6594  15.1323  15.1441
    16.6512

          k =-0.2357-0.4714 0.4714 (   624 PWs)   bands (ev):

   -70.3340 -37.0813 -37.0478 -37.0392   3.7348   6.2291  13.3588  15.3270
    16.7681

          k =-0.1179-0.3536 0.3536 (   625 PWs)   bands (ev):

   -70.3344 -37.0773 -37.0530 -37.0383   2.7290   7.5750  12.5236  16.5810
    18.1191

          k = 0.0000-0.2357 0.2357 (   616 PWs)   bands (ev):

   -70.3359 -37.0552 -37.0395 -37.0359   0.4622  11.8266  13.3349  18.9244
    20.2922

          k = 0.4714 0.0000 0.0000 (   624 PWs)   bands (ev):

   -70.3344 -37.0706 -37.0480 -37.0480   2.1214  11.7170  12.9267  13.9102
    13.9102

          k =-0.1179-0.5893 0.5893 (   623 PWs)   bands (ev):

   -70.3334 -37.0727 -37.0555 -37.0420   4.3395   8.7925   9.6351  13.7426
    14.7309

          k =-0.0000-0.4714 0.4714 (   634 PWs)   bands (ev):

   -70.3335 -37.0783 -37.0707 -37.0444   5.3117   7.1910   8.6381  14.6301
    15.8994

          k =-0.7071 0.0000 0.0000 (   636 PWs)   bands (ev):

   -70.3332 -37.0930 -37.0583 -37.0583   5.6600   6.7780  12.0860  13.2051
    13.2051

          k =-0.2357-0.4714 0.7071 (   624 PWs)   bands (ev):

   -70.3341 -37.0651 -37.0553 -37.0460   2.9350   9.4968  10.8362  13.0405
    18.9103

          k =-0.1179-0.3536 0.5893 (   628 PWs)   bands (ev):

   -70.3335 -37.0719 -37.0630 -37.0456   5.6502   6.2465  10.4013  11.7659
    20.3195

          k =-0.7071 0.2357 0.0000 (   628 PWs)   bands (ev):

   -70.3331 -37.0718 -37.0629 -37.0501   6.4279   7.4657   8.7205  10.6812
    18.1680

     the Fermi energy is     6.0882 ev

!    total energy              =    -141.35031188 Ry
     total all-electron energy =      -400.620581 Ry
     estimated scf accuracy    <       0.00000015 Ry
     smearing contrib. (-TS)   =      -0.00013841 Ry
     internal energy E=F+TS    =    -141.35017347 Ry

     The total energy is F=E-TS. E is the sum of the following terms:
     one-electron contribution =    -104.27769094 Ry
     hartree contribution      =      50.32584558 Ry
     xc contribution           =     -17.53292421 Ry
     ewald contribution        =     -54.90928409 Ry
     one-center paw contrib.   =     -14.95611980 Ry

     convergence has been achieved in   4 iterations

     Forces acting on atoms (cartesian axes, Ry/au):

     atom    1 type  1   force =     0.00000000    0.00000000    0.00000000

     Total force =     0.000000     Total SCF correction =     0.000000


     Computing stress (Cartesian axis) and pressure

          total   stress  (Ry/bohr**3)                   (kbar)     P=     -249.97
  -0.00169925   0.00000000   0.00000000         -249.97        0.00        0.00
   0.00000000  -0.00169925   0.00000000            0.00     -249.97        0.00
   0.00000000   0.00000000  -0.00169925            0.00        0.00     -249.97


     Writing all to output data dir ./pwscf.save/ :
     XML data file, charge density, pseudopotentials, collected wavefunctions

     init_run     :      0.26s CPU      0.27s WALL (       1 calls)
     electrons    :      0.86s CPU      0.88s WALL (       1 calls)
     forces       :      0.03s CPU      0.03s WALL (       1 calls)
     stress       :      0.11s CPU      0.11s WALL (       1 calls)

     Called by init_run:
     wfcinit      :      0.04s CPU      0.04s WALL (       1 calls)
     potinit      :      0.07s CPU      0.08s WALL (       1 calls)
     hinit0       :      0.14s CPU      0.14s WALL (       1 calls)

     Called by electrons:
     c_bands      :      0.52s CPU      0.52s WALL (       5 calls)
     sum_band     :      0.11s CPU      0.12s WALL (       5 calls)
     v_of_rho     :      0.07s CPU      0.08s WALL (       5 calls)
     newd         :      0.03s CPU      0.04s WALL (       5 calls)
     PAW_pot      :      0.18s CPU      0.18s WALL (       5 calls)
     mix_rho      :      0.00s CPU      0.00s WALL (       5 calls)

     Called by c_bands:
     init_us_2    :      0.01s CPU      0.01s WALL (     208 calls)
     cegterg      :      0.51s CPU      0.51s WALL (      80 calls)

     Called by *egterg:
     cdiaghg      :      0.02s CPU      0.02s WALL (     347 calls)
     h_psi        :      0.39s CPU      0.40s WALL (     379 calls)
     s_psi        :      0.01s CPU      0.01s WALL (     379 calls)
     g_psi        :      0.00s CPU      0.00s WALL (     283 calls)

     Called by h_psi:
     h_psi:calbec :      0.02s CPU      0.02s WALL (     379 calls)
     vloc_psi     :      0.37s CPU      0.37s WALL (     379 calls)
                                        0.00s GPU  (     379 calls)
     add_vuspsi   :      0.01s CPU      0.01s WALL (     379 calls)

     General routines
     calbec       :      0.04s CPU      0.04s WALL (     731 calls)
     fft          :      0.04s CPU      0.04s WALL (      89 calls)
     ffts         :      0.00s CPU      0.00s WALL (      10 calls)
     fftw         :      0.38s CPU      0.39s WALL (    4810 calls)
     interpolate  :      0.00s CPU      0.00s WALL (       5 calls)

     Parallel routines

     PWSCF        :      1.35s CPU      1.39s WALL


   This run was terminated on:  15:55:10  15Mar2026            

=------------------------------------------------------------------------------=
   JOB DONE.
=------------------------------------------------------------------------------=
