
     Program PWSCF v.7.5 starts on 15Mar2026 at 16:10:46 

     This program is part of the open-source Quantum ESPRESSO suite
     for quantum simulation of materials; please cite
         "P. Giannozzi et al., J. Phys.:Condens. Matter 21 395502 (2009);
         "P. Giannozzi et al., J. Phys.:Condens. Matter 29 465901 (2017);
         "P. Giannozzi et al., J. Chem. Phys. 152 154105 (2020);
          URL http://www.quantum-espresso.org", 
     in publications or presentations arising from this work. More details at
     http://www.quantum-espresso.org/quote

     Parallel version (MPI), running on     1 processors

     MPI processes distributed on     1 nodes
     1390 MiB available memory on the printing compute node when the environment starts

     Reading input from espresso.pwi
Warning: card &CELL ignored
Warning: card &FCP ignored
Warning: card &RISM ignored

     Current dimensions of program PWSCF are:
     Max number of different atomic species (ntypx) = 10
     Max number of k-points (npk) =  40000
     Max angular momentum in pseudopotentials (lmaxx) =  4
     file Cr.pbe-spn-kjpaw_psl.1.0.0.UPF: wavefunction(s)  3S 3P 3D renormalized
     Message from routine setup:
     using ibrav=0 with symmetry is DISCOURAGED, use correct ibrav instead

     Subspace diagonalization in iterative solution of the eigenvalue problem:
     a serial algorithm will be used


     G-vector sticks info
     --------------------
     sticks:   dense  smooth     PW     G-vecs:    dense   smooth      PW
     Sum         587     291    129                 8949     3151     935

     Using Slab Decomposition



     bravais-lattice index     =            0
     lattice parameter (alat)  =       4.9529  a.u.
     unit-cell volume          =      93.5288 (a.u.)^3
     number of atoms/cell      =            1
     number of atomic types    =            1
     number of electrons       =        14.00
     number of Kohn-Sham states=           11
     kinetic-energy cutoff     =      40.0000  Ry
     charge density cutoff     =     320.0000  Ry
     scf convergence threshold =      1.0E-06
     mixing beta               =       0.7000
     number of iterations used =            8  plain     mixing
     Exchange-correlation= SLA  PW   PBX  PBC
                           (   1   4   3   4   0   0   0)

     celldm(1)=   4.952857  celldm(2)=   0.000000  celldm(3)=   0.000000
     celldm(4)=   0.000000  celldm(5)=   0.000000  celldm(6)=   0.000000

     crystal axes: (cart. coord. in units of alat)
               a(1) = (  -0.577350   0.577350   0.577350 )  
               a(2) = (   0.577350  -0.577350   0.577350 )  
               a(3) = (   0.577350   0.577350  -0.577350 )  

     reciprocal axes: (cart. coord. in units 2 pi/alat)
               b(1) = (  0.000000  0.866025  0.866025 )  
               b(2) = (  0.866025  0.000000  0.866025 )  
               b(3) = (  0.866025  0.866025  0.000000 )  


     PseudoPot. # 1 for Cr read from file:
     /home/kenobi/Workspaces/PHYS400/pseudopotentials/Cr.pbe-spn-kjpaw_psl.1.0.0.UPF
     MD5 check sum: 198f1a2427a48552563eee314eba32ba
     Pseudo is Projector augmented-wave + core cor, Zval = 14.0
     Generated using &quot;atomic&quot; code by A. Dal Corso  v.6.3
     Shape of augmentation charge: PSQ
     Using radial grid of 1183 points,  6 beta functions with: 
                l(1) =   0
                l(2) =   0
                l(3) =   1
                l(4) =   1
                l(5) =   2
                l(6) =   2
     Q(r) pseudized with 0 coefficients 


     atomic species   valence    mass     pseudopotential
     Cr               14.00    51.99610     Cr( 1.00)

     Starting magnetic structure 
     atomic species   magnetization
     Cr              0.000

     48 Sym. Ops., with inversion, found



   Cartesian axes

     site n.     atom                  positions (alat units)
         1        Cr     tau(   1) = (   0.0000000   0.0000000   0.0000000  )

     number of k points=    16  Marzari-Vanderbilt smearing, width (Ry)=  0.0200
                       cart. coord. in units 2pi/alat
        k(    1) = (   0.0000000   0.0000000   0.0000000), wk =   0.0046296
        k(    2) = (   0.1443376   0.1443376   0.0000000), wk =   0.0555556
        k(    3) = (   0.2886751   0.2886751   0.0000000), wk =   0.0555556
        k(    4) = (  -0.4330127  -0.4330127   0.0000000), wk =   0.0277778
        k(    5) = (   0.2886751   0.1443376   0.1443376), wk =   0.1111111
        k(    6) = (   0.4330127   0.2886751   0.1443376), wk =   0.2222222
        k(    7) = (   0.5773503   0.2886751   0.2886751), wk =   0.0370370
        k(    8) = (   0.2886751   0.2886751   0.2886751), wk =   0.0370370
        k(    9) = (   0.4330127   0.4330127   0.2886751), wk =   0.0555556
        k(   10) = (   0.0000000   0.0000000   0.2886751), wk =   0.0277778
        k(   11) = (  -0.0000000  -0.1443376   0.4330127), wk =   0.1111111
        k(   12) = (  -0.8660254  -0.2886751  -0.2886751), wk =   0.0555556
        k(   13) = (  -0.7216878  -0.1443376  -0.2886751), wk =   0.1111111
        k(   14) = (  -0.0000000  -0.0000000   0.5773503), wk =   0.0277778
        k(   15) = (  -0.8660254  -0.1443376  -0.1443376), wk =   0.0555556
        k(   16) = (  -0.8660254  -0.8660254  -0.8660254), wk =   0.0046296

     Dense  grid:     8949 G-vectors     FFT dimensions: (  30,  30,  30)

     Smooth grid:     3151 G-vectors     FFT dimensions: (  20,  20,  20)

     Estimated max dynamical RAM per process >      40.70 MB

     Check: negative core charge=   -0.000012
     Generating pointlists ...
     new r_m :   0.4125 (alat units)  2.0431 (a.u.) for type    1

     Initial potential from superposition of free atoms

     starting charge      13.9992, renormalised to      14.0000
     Starting wfcs are   10 randomized atomic wfcs +    1 random wfcs
     Checking if some PAW data can be deallocated... 

     total cpu time spent up to now is        1.0 secs

     Self-consistent Calculation

     iteration #  1     ecut=    40.00 Ry     beta= 0.70
     Davidson diagonalization with overlap
     ethr =  1.00E-02,  avg # of iterations =  3.1

     Threshold (ethr) on eigenvalues was too large:
     Diagonalizing with lowered threshold

     Davidson diagonalization with overlap
     ethr =  7.18E-04,  avg # of iterations =  1.3

     total cpu time spent up to now is        1.9 secs

     total energy              =    -248.12676950 Ry
     estimated scf accuracy    <       0.10510617 Ry

     total magnetization       =     0.00 Bohr mag/cell
     absolute magnetization    =     0.00 Bohr mag/cell

     iteration #  2     ecut=    40.00 Ry     beta= 0.70
     Davidson diagonalization with overlap
     ethr =  7.51E-04,  avg # of iterations =  2.9

     total cpu time spent up to now is        2.7 secs

     total energy              =    -248.14383392 Ry
     estimated scf accuracy    <       0.19584229 Ry

     total magnetization       =     0.00 Bohr mag/cell
     absolute magnetization    =     0.00 Bohr mag/cell

     iteration #  3     ecut=    40.00 Ry     beta= 0.70
     Davidson diagonalization with overlap
     ethr =  7.51E-04,  avg # of iterations =  2.0

     total cpu time spent up to now is        3.4 secs

     total energy              =    -248.18149918 Ry
     estimated scf accuracy    <       0.00032448 Ry

     total magnetization       =     0.00 Bohr mag/cell
     absolute magnetization    =     0.00 Bohr mag/cell

     iteration #  4     ecut=    40.00 Ry     beta= 0.70
     Davidson diagonalization with overlap
     ethr =  2.32E-06,  avg # of iterations =  4.1

     total cpu time spent up to now is        4.3 secs

     total energy              =    -248.18167461 Ry
     estimated scf accuracy    <       0.00031955 Ry

     total magnetization       =     0.00 Bohr mag/cell
     absolute magnetization    =     0.00 Bohr mag/cell

     iteration #  5     ecut=    40.00 Ry     beta= 0.70
     Davidson diagonalization with overlap
     ethr =  2.28E-06,  avg # of iterations =  2.0

     Magnetic moment per site  (integrated on atomic sphere of radius R)
     atom   1 (R=0.413)  charge= 12.3561  magn=  0.0003

     total cpu time spent up to now is        5.0 secs

     End of self-consistent calculation

 ------ SPIN UP ------------


          k = 0.0000 0.0000 0.0000 (   381 PWs)   bands (ev):

   -56.1490 -27.0890 -27.0890 -27.0890   8.5302  15.0419  15.0419  15.0419
    16.6748  16.6748  36.6375

          k = 0.1443 0.1443 0.0000 (   392 PWs)   bands (ev):

   -56.1246 -27.2309 -27.1411 -27.0905   9.5291  14.7166  14.9290  15.6609
    16.4288  16.7065  33.3226

          k = 0.2887 0.2887 0.0000 (   398 PWs)   bands (ev):

   -56.0751 -27.4862 -27.2299 -27.0929  11.6020  14.1164  14.9423  16.5274
    16.8276  17.0940  27.3587

          k =-0.4330-0.4330 0.0000 (   392 PWs)   bands (ev):

   -56.0500 -27.6059 -27.2639 -27.0848  12.1149  13.8377  16.5117  16.6452
    16.9191  17.9569  23.6828

          k = 0.2887 0.1443 0.1443 (   389 PWs)   bands (ev):

   -56.0873 -27.3939 -27.1923 -27.1159  11.2111  14.3596  14.4343  16.2792
    16.8282  17.0017  30.4032

          k = 0.4330 0.2887 0.1443 (   401 PWs)   bands (ev):

   -56.0503 -27.5538 -27.2972 -27.1303  12.6086  13.9336  14.7712  16.5436
    17.0594  19.0592  25.0318

          k = 0.5774 0.2887 0.2887 (   399 PWs)   bands (ev):

   -56.0378 -27.4492 -27.4492 -27.1579  13.4401  14.0144  14.0144  16.8563
    16.8563  22.9194  22.9194

          k = 0.2887 0.2887 0.2887 (   408 PWs)   bands (ev):

   -56.0594 -27.5102 -27.2192 -27.2192  13.0382  13.8288  13.8288  16.8138
    16.8138  19.1430  28.0880

          k = 0.4330 0.4330 0.2887 (   400 PWs)   bands (ev):

   -56.0449 -27.4788 -27.3229 -27.2185  13.3497  13.6829  14.4221  16.8773
    16.9527  21.7693  23.8844

          k = 0.0000 0.0000 0.2887 (   390 PWs)   bands (ev):

   -56.1016 -27.2377 -27.1856 -27.1856  10.4433  15.0942  15.0942  15.5269
    15.6569  17.0855  32.9766

          k =-0.0000-0.1443 0.4330 (   404 PWs)   bands (ev):

   -56.0558 -27.4670 -27.2798 -27.1968  12.2777  14.3166  14.7761  15.9109
    16.9717  17.7231  27.9630

          k =-0.8660-0.2887-0.2887 (   398 PWs)   bands (ev):

   -56.0324 -27.5655 -27.3176 -27.1868  12.7119  14.3769  14.5531  16.0881
    17.8813  19.6888  23.7229

          k =-0.7217-0.1443-0.2887 (   402 PWs)   bands (ev):

   -56.0236 -27.5080 -27.3959 -27.2299  13.3015  13.5252  14.7500  16.4384
    17.2932  20.5925  25.7377

          k =-0.0000-0.0000 0.5774 (   414 PWs)   bands (ev):

   -56.0168 -27.4550 -27.3739 -27.3739  12.8844  13.3892  16.1593  16.1593
    16.9641  19.4654  28.4556

          k =-0.8660-0.1443-0.1443 (   406 PWs)   bands (ev):

   -55.9969 -27.4995 -27.4143 -27.3816  12.8234  12.9111  16.3551  16.6346
    17.7319  22.8691  24.1247

          k =-0.8660-0.8660-0.8660 (   418 PWs)   bands (ev):

   -55.9792 -27.4722 -27.4722 -27.4722  12.4120  12.4120  17.6571  17.6571
    17.6571  24.8507  24.8507

 ------ SPIN DOWN ----------


          k = 0.0000 0.0000 0.0000 (   381 PWs)   bands (ev):

   -56.1483 -27.0883 -27.0883 -27.0883   8.5301  15.0426  15.0426  15.0426
    16.6752  16.6752  36.6373

          k = 0.1443 0.1443 0.0000 (   392 PWs)   bands (ev):

   -56.1239 -27.2303 -27.1404 -27.0898   9.5291  14.7173  14.9297  15.6616
    16.4292  16.7069  33.3226

          k = 0.2887 0.2887 0.0000 (   398 PWs)   bands (ev):

   -56.0745 -27.4855 -27.2292 -27.0923  11.6021  14.1171  14.9426  16.5279
    16.8280  17.0948  27.3589

          k =-0.4330-0.4330 0.0000 (   392 PWs)   bands (ev):

   -56.0493 -27.6052 -27.2632 -27.0841  12.1152  13.8383  16.5116  16.6457
    16.9195  17.9577  23.6832

          k = 0.2887 0.1443 0.1443 (   389 PWs)   bands (ev):

   -56.0867 -27.3932 -27.1917 -27.1152  11.2111  14.3602  14.4349  16.2796
    16.8288  17.0022  30.4031

          k = 0.4330 0.2887 0.1443 (   401 PWs)   bands (ev):

   -56.0496 -27.5531 -27.2966 -27.1297  12.6089  13.9341  14.7714  16.5441
    17.0599  19.0597  25.0321

          k = 0.5774 0.2887 0.2887 (   399 PWs)   bands (ev):

   -56.0371 -27.4485 -27.4485 -27.1573  13.4406  14.0146  14.0146  16.8569
    16.8569  22.9196  22.9196

          k = 0.2887 0.2887 0.2887 (   408 PWs)   bands (ev):

   -56.0588 -27.5096 -27.2185 -27.2185  13.0383  13.8294  13.8294  16.8142
    16.8142  19.1436  28.0881

          k = 0.4330 0.4330 0.2887 (   400 PWs)   bands (ev):

   -56.0443 -27.4781 -27.3223 -27.2179  13.3501  13.6834  14.4224  16.8777
    16.9531  21.7697  23.8847

          k = 0.0000 0.0000 0.2887 (   390 PWs)   bands (ev):

   -56.1009 -27.2370 -27.1850 -27.1850  10.4433  15.0949  15.0949  15.5272
    15.6576  17.0859  32.9765

          k =-0.0000-0.1443 0.4330 (   404 PWs)   bands (ev):

   -56.0551 -27.4663 -27.2791 -27.1961  12.2777  14.3168  14.7767  15.9114
    16.9725  17.7234  27.9632

          k =-0.8660-0.2887-0.2887 (   398 PWs)   bands (ev):

   -56.0317 -27.5648 -27.3169 -27.1862  12.7121  14.3770  14.5537  16.0886
    17.8821  19.6889  23.7233

          k =-0.7217-0.1443-0.2887 (   402 PWs)   bands (ev):

   -56.0229 -27.5073 -27.3953 -27.2292  13.3017  13.5254  14.7506  16.4390
    17.2939  20.5928  25.7379

          k =-0.0000-0.0000 0.5774 (   414 PWs)   bands (ev):

   -56.0161 -27.4543 -27.3732 -27.3732  12.8845  13.3894  16.1600  16.1600
    16.9648  19.4656  28.4558

          k =-0.8660-0.1443-0.1443 (   406 PWs)   bands (ev):

   -55.9962 -27.4989 -27.4136 -27.3809  12.8236  12.9112  16.3558  16.6352
    17.7327  22.8693  24.1249

          k =-0.8660-0.8660-0.8660 (   418 PWs)   bands (ev):

   -55.9786 -27.4716 -27.4716 -27.4716  12.4121  12.4121  17.6578  17.6578
    17.6578  24.8508  24.8508

     the Fermi energy is    15.7911 ev

!    total energy              =    -248.18173862 Ry
     total all-electron energy =     -2101.714417 Ry
     estimated scf accuracy    <       0.00000019 Ry
     smearing contrib. (-TS)   =      -0.00074562 Ry
     internal energy E=F+TS    =    -248.18099301 Ry

     The total energy is F=E-TS. E is the sum of the following terms:
     one-electron contribution =     -67.35482910 Ry
     hartree contribution      =      40.26025723 Ry
     xc contribution           =     -22.12979043 Ry
     ewald contribution        =    -124.72134672 Ry
     one-center paw contrib.   =     -74.23528398 Ry

     total magnetization       =     0.00 Bohr mag/cell
     absolute magnetization    =     0.00 Bohr mag/cell

     convergence has been achieved in   5 iterations

     Forces acting on atoms (cartesian axes, Ry/au):

     atom    1 type  1   force =     0.00000000    0.00000000    0.00000000

     Total force =     0.000000     Total SCF correction =     0.000000


     Computing stress (Cartesian axis) and pressure

          total   stress  (Ry/bohr**3)                   (kbar)     P=     -590.43
  -0.00401365  -0.00000000  -0.00000000         -590.43       -0.00       -0.00
  -0.00000000  -0.00401365  -0.00000000           -0.00     -590.43       -0.00
  -0.00000000  -0.00000000  -0.00401365           -0.00       -0.00     -590.43


     Writing all to output data dir ./pwscf.save/ :
     XML data file, charge density, pseudopotentials, collected wavefunctions

     init_run     :      0.77s CPU      0.84s WALL (       1 calls)
     electrons    :      3.78s CPU      3.99s WALL (       1 calls)
     forces       :      0.09s CPU      0.09s WALL (       1 calls)
     stress       :      0.37s CPU      0.37s WALL (       1 calls)

     Called by init_run:
     wfcinit      :      0.07s CPU      0.07s WALL (       1 calls)
     potinit      :      0.41s CPU      0.47s WALL (       1 calls)
     hinit0       :      0.26s CPU      0.26s WALL (       1 calls)

     Called by electrons:
     c_bands      :      1.24s CPU      1.27s WALL (       6 calls)
     sum_band     :      0.42s CPU      0.43s WALL (       6 calls)
     v_of_rho     :      0.13s CPU      0.13s WALL (       6 calls)
     newd         :      0.15s CPU      0.20s WALL (       6 calls)
     PAW_pot      :      2.23s CPU      2.43s WALL (       6 calls)
     mix_rho      :      0.01s CPU      0.01s WALL (       6 calls)

     Called by c_bands:
     init_us_2    :      0.03s CPU      0.03s WALL (     480 calls)
     cegterg      :      1.19s CPU      1.22s WALL (     192 calls)

     Called by *egterg:
     cdiaghg      :      0.06s CPU      0.07s WALL (     653 calls)
     h_psi        :      0.92s CPU      0.93s WALL (     717 calls)
     s_psi        :      0.04s CPU      0.04s WALL (     717 calls)
     g_psi        :      0.00s CPU      0.00s WALL (     493 calls)

     Called by h_psi:
     h_psi:calbec :      0.06s CPU      0.06s WALL (     717 calls)
     vloc_psi     :      0.81s CPU      0.82s WALL (     717 calls)
                                        0.00s GPU  (     717 calls)
     add_vuspsi   :      0.04s CPU      0.05s WALL (     717 calls)

     General routines
     calbec       :      0.16s CPU      0.16s WALL (    1453 calls)
     fft          :      0.06s CPU      0.06s WALL (     190 calls)
     ffts         :      0.00s CPU      0.00s WALL (      24 calls)
     fftw         :      0.88s CPU      0.89s WALL (   13492 calls)
     interpolate  :      0.01s CPU      0.01s WALL (      12 calls)

     Parallel routines

     PWSCF        :      5.14s CPU      5.43s WALL


   This run was terminated on:  16:10:51  15Mar2026            

=------------------------------------------------------------------------------=
   JOB DONE.
=------------------------------------------------------------------------------=
