
     Program PWSCF v.7.5 starts on 15Mar2026 at 16: 9:50 

     This program is part of the open-source Quantum ESPRESSO suite
     for quantum simulation of materials; please cite
         "P. Giannozzi et al., J. Phys.:Condens. Matter 21 395502 (2009);
         "P. Giannozzi et al., J. Phys.:Condens. Matter 29 465901 (2017);
         "P. Giannozzi et al., J. Chem. Phys. 152 154105 (2020);
          URL http://www.quantum-espresso.org", 
     in publications or presentations arising from this work. More details at
     http://www.quantum-espresso.org/quote

     Parallel version (MPI), running on     1 processors

     MPI processes distributed on     1 nodes
     1470 MiB available memory on the printing compute node when the environment starts

     Reading input from espresso.pwi
Warning: card &CELL ignored
Warning: card &FCP ignored
Warning: card &RISM ignored

     Current dimensions of program PWSCF are:
     Max number of different atomic species (ntypx) = 10
     Max number of k-points (npk) =  40000
     Max angular momentum in pseudopotentials (lmaxx) =  4
     file Al.pbe-n-kjpaw_psl.1.0.0.UPF: wavefunction(s)  3S 3P renormalized
     Message from routine setup:
     using ibrav=0 with symmetry is DISCOURAGED, use correct ibrav instead

     Subspace diagonalization in iterative solution of the eigenvalue problem:
     a serial algorithm will be used


     G-vector sticks info
     --------------------
     sticks:   dense  smooth     PW     G-vecs:    dense   smooth      PW
     Sum         649     313    109                10849     3839     749

     Using Slab Decomposition



     bravais-lattice index     =            0
     lattice parameter (alat)  =       5.4118  a.u.
     unit-cell volume          =     112.0732 (a.u.)^3
     number of atoms/cell      =            1
     number of atomic types    =            1
     number of electrons       =         3.00
     number of Kohn-Sham states=            6
     kinetic-energy cutoff     =      40.0000  Ry
     charge density cutoff     =     320.0000  Ry
     scf convergence threshold =      1.0E-06
     mixing beta               =       0.7000
     number of iterations used =            8  plain     mixing
     Exchange-correlation= SLA  PW   PBX  PBC
                           (   1   4   3   4   0   0   0)

     celldm(1)=   5.411765  celldm(2)=   0.000000  celldm(3)=   0.000000
     celldm(4)=   0.000000  celldm(5)=   0.000000  celldm(6)=   0.000000

     crystal axes: (cart. coord. in units of alat)
               a(1) = (   0.000000   0.707107   0.707107 )  
               a(2) = (   0.707107   0.000000   0.707107 )  
               a(3) = (   0.707107   0.707107   0.000000 )  

     reciprocal axes: (cart. coord. in units 2 pi/alat)
               b(1) = ( -0.707107  0.707107  0.707107 )  
               b(2) = (  0.707107 -0.707107  0.707107 )  
               b(3) = (  0.707107  0.707107 -0.707107 )  


     PseudoPot. # 1 for Al read from file:
     /home/kenobi/Workspaces/PHYS400/pseudopotentials/Al.pbe-n-kjpaw_psl.1.0.0.UPF
     MD5 check sum: 502b6b27b9c6270cab5dd1084b96fa6d
     Pseudo is Projector augmented-wave + core cor, Zval =  3.0
     Generated using &quot;atomic&quot; code by A. Dal Corso  v.6.3
     Shape of augmentation charge: PSQ
     Using radial grid of 1135 points,  6 beta functions with: 
                l(1) =   0
                l(2) =   0
                l(3) =   1
                l(4) =   1
                l(5) =   2
                l(6) =   2
     Q(r) pseudized with 0 coefficients 


     atomic species   valence    mass     pseudopotential
     Al                3.00    26.98154     Al( 1.00)

     48 Sym. Ops., with inversion, found



   Cartesian axes

     site n.     atom                  positions (alat units)
         1        Al     tau(   1) = (   0.0000000   0.0000000   0.0000000  )

     number of k points=    16  Marzari-Vanderbilt smearing, width (Ry)=  0.0200
                       cart. coord. in units 2pi/alat
        k(    1) = (   0.0000000   0.0000000   0.0000000), wk =   0.0092593
        k(    2) = (   0.1178511   0.1178511  -0.1178511), wk =   0.0740741
        k(    3) = (   0.2357023   0.2357023  -0.2357023), wk =   0.0740741
        k(    4) = (  -0.3535534  -0.3535534   0.3535534), wk =   0.0370370
        k(    5) = (   0.2357023   0.0000000   0.0000000), wk =   0.0555556
        k(    6) = (   0.3535534   0.1178511  -0.1178511), wk =   0.2222222
        k(    7) = (  -0.2357023  -0.4714045   0.4714045), wk =   0.2222222
        k(    8) = (  -0.1178511  -0.3535534   0.3535534), wk =   0.2222222
        k(    9) = (   0.0000000  -0.2357023   0.2357023), wk =   0.1111111
        k(   10) = (   0.4714045   0.0000000   0.0000000), wk =   0.0555556
        k(   11) = (  -0.1178511  -0.5892557   0.5892557), wk =   0.2222222
        k(   12) = (  -0.0000000  -0.4714045   0.4714045), wk =   0.1111111
        k(   13) = (  -0.7071068   0.0000000   0.0000000), wk =   0.0277778
        k(   14) = (  -0.2357023  -0.4714045   0.7071068), wk =   0.2222222
        k(   15) = (  -0.1178511  -0.3535534   0.5892557), wk =   0.2222222
        k(   16) = (  -0.7071068   0.2357023   0.0000000), wk =   0.1111111

     Dense  grid:    10849 G-vectors     FFT dimensions: (  32,  32,  32)

     Smooth grid:     3839 G-vectors     FFT dimensions: (  24,  24,  24)

     Estimated max dynamical RAM per process >      42.29 MB

     Initial potential from superposition of free atoms

     starting charge       2.9977, renormalised to       3.0000
     Starting wfcs are    4 randomized atomic wfcs +    2 random wfcs
     Checking if some PAW data can be deallocated... 

     total cpu time spent up to now is        0.6 secs

     Self-consistent Calculation

     iteration #  1     ecut=    40.00 Ry     beta= 0.70
     Davidson diagonalization with overlap
     ethr =  1.00E-02,  avg # of iterations =  5.8

     Threshold (ethr) on eigenvalues was too large:
     Diagonalizing with lowered threshold

     Davidson diagonalization with overlap
     ethr =  1.76E-04,  avg # of iterations =  3.6

     total cpu time spent up to now is        1.1 secs

     total energy              =     -39.50793084 Ry
     estimated scf accuracy    <       0.00515759 Ry

     iteration #  2     ecut=    40.00 Ry     beta= 0.70
     Davidson diagonalization with overlap
     ethr =  1.72E-04,  avg # of iterations =  1.0

     total cpu time spent up to now is        1.4 secs

     total energy              =     -39.50788222 Ry
     estimated scf accuracy    <       0.00037122 Ry

     iteration #  3     ecut=    40.00 Ry     beta= 0.70
     Davidson diagonalization with overlap
     ethr =  1.24E-05,  avg # of iterations =  2.9

     total cpu time spent up to now is        1.7 secs

     End of self-consistent calculation

          k = 0.0000 0.0000 0.0000 (   531 PWs)   bands (ev):

    -3.2556  20.4113  20.4116  21.8611  21.8611  21.8612

          k = 0.1179 0.1179-0.1179 (   489 PWs)   bands (ev):

    -2.5050  14.4564  19.1378  19.1382  22.3764  23.7685

          k = 0.2357 0.2357-0.2357 (   492 PWs)   bands (ev):

    -0.2768   8.3314  18.5585  18.5585  21.1390  21.1393

          k =-0.3536-0.3536 0.3536 (   476 PWs)   bands (ev):

     3.2689   3.4658  19.1812  19.1812  19.2624  19.2625

          k = 0.2357 0.0000 0.0000 (   488 PWs)   bands (ev):

    -2.2557  16.8112  16.8115  16.9886  20.0375  20.2855

          k = 0.3536 0.1179-0.1179 (   481 PWs)   bands (ev):

    -0.5229  10.8285  15.7575  16.4911  17.4003  22.2759

          k =-0.2357-0.4714 0.4714 (   478 PWs)   bands (ev):

     2.6378   5.5118  14.0321  15.9835  17.7624  23.7425

          k =-0.1179-0.3536 0.3536 (   483 PWs)   bands (ev):

     1.4322   7.1372  12.9235  17.4909  19.4196  22.6818

          k = 0.0000-0.2357 0.2357 (   487 PWs)   bands (ev):

    -1.2629  12.3106  13.7094  20.2361  22.2628  22.3583

          k = 0.4714 0.0000 0.0000 (   480 PWs)   bands (ev):

     0.7001  12.2017  14.0811  14.2596  14.2596  17.7352

          k =-0.1179-0.5893 0.5893 (   472 PWs)   bands (ev):

     3.3386   8.8709   9.3309  14.0504  15.5517  20.7017

          k =-0.0000-0.4714 0.4714 (   466 PWs)   bands (ev):

     4.5446   6.7683   8.2225  15.1257  16.8856  26.4280

          k =-0.7071 0.0000 0.0000 (   468 PWs)   bands (ev):

     4.9282   6.2386  13.0920  13.4085  13.4085  16.8389

          k =-0.2357-0.4714 0.7071 (   481 PWs)   bands (ev):

     1.6724   9.5387  10.9895  13.1860  20.6155  22.2261

          k =-0.1179-0.3536 0.5893 (   478 PWs)   bands (ev):

     5.1171   5.3726  10.8363  11.3881  21.8062  22.2873

          k =-0.7071 0.2357 0.0000 (   478 PWs)   bands (ev):

     5.8474   7.1881   8.6144  10.1698  19.7298  21.5384

     the Fermi energy is     8.1914 ev

!    total energy              =     -39.50788913 Ry
     total all-electron energy =      -485.650669 Ry
     estimated scf accuracy    <       0.00000041 Ry
     smearing contrib. (-TS)   =      -0.00054477 Ry
     internal energy E=F+TS    =     -39.50734437 Ry

     The total energy is F=E-TS. E is the sum of the following terms:
     one-electron contribution =       3.14545980 Ry
     hartree contribution      =       0.00535327 Ry
     xc contribution           =      -2.58716344 Ry
     ewald contribution        =      -5.39156561 Ry
     one-center paw contrib.   =     -34.67942839 Ry

     convergence has been achieved in   3 iterations

     Forces acting on atoms (cartesian axes, Ry/au):

     atom    1 type  1   force =     0.00000000    0.00000000    0.00000000

     Total force =     0.000000     Total SCF correction =     0.000000


     Computing stress (Cartesian axis) and pressure

          total   stress  (Ry/bohr**3)                   (kbar)     P=       -2.20
  -0.00001492   0.00000000   0.00000000           -2.20        0.00        0.00
   0.00000000  -0.00001492   0.00000000            0.00       -2.20        0.00
   0.00000000   0.00000000  -0.00001492            0.00        0.00       -2.20


     Writing all to output data dir ./pwscf.save/ :
     XML data file, charge density, pseudopotentials, collected wavefunctions

     init_run     :      0.48s CPU      0.52s WALL (       1 calls)
     electrons    :      1.04s CPU      1.05s WALL (       1 calls)
     forces       :      0.06s CPU      0.06s WALL (       1 calls)
     stress       :      0.32s CPU      0.32s WALL (       1 calls)

     Called by init_run:
     wfcinit      :      0.03s CPU      0.03s WALL (       1 calls)
     potinit      :      0.19s CPU      0.21s WALL (       1 calls)
     hinit0       :      0.23s CPU      0.23s WALL (       1 calls)

     Called by electrons:
     c_bands      :      0.30s CPU      0.30s WALL (       4 calls)
     sum_band     :      0.14s CPU      0.16s WALL (       4 calls)
     v_of_rho     :      0.04s CPU      0.04s WALL (       4 calls)
     newd         :      0.10s CPU      0.11s WALL (       4 calls)
     PAW_pot      :      0.65s CPU      0.67s WALL (       4 calls)
     mix_rho      :      0.00s CPU      0.00s WALL (       4 calls)

     Called by c_bands:
     init_us_2    :      0.02s CPU      0.02s WALL (     176 calls)
     cegterg      :      0.28s CPU      0.28s WALL (      64 calls)

     Called by *egterg:
     cdiaghg      :      0.01s CPU      0.01s WALL (     260 calls)
     h_psi        :      0.24s CPU      0.25s WALL (     292 calls)
     s_psi        :      0.01s CPU      0.01s WALL (     292 calls)
     g_psi        :      0.00s CPU      0.00s WALL (     212 calls)

     Called by h_psi:
     h_psi:calbec :      0.02s CPU      0.02s WALL (     292 calls)
     vloc_psi     :      0.21s CPU      0.22s WALL (     292 calls)
                                        0.00s GPU  (     292 calls)
     add_vuspsi   :      0.01s CPU      0.01s WALL (     292 calls)

     General routines
     calbec       :      0.04s CPU      0.04s WALL (     628 calls)
     fft          :      0.02s CPU      0.02s WALL (      76 calls)
     ffts         :      0.00s CPU      0.00s WALL (       8 calls)
     fftw         :      0.22s CPU      0.23s WALL (    2774 calls)
     interpolate  :      0.00s CPU      0.00s WALL (       4 calls)

     Parallel routines

     PWSCF        :      2.02s CPU      2.08s WALL


   This run was terminated on:  16: 9:52  15Mar2026            

=------------------------------------------------------------------------------=
   JOB DONE.
=------------------------------------------------------------------------------=
