
     Program PWSCF v.7.5 starts on 15Mar2026 at 16:10:52 

     This program is part of the open-source Quantum ESPRESSO suite
     for quantum simulation of materials; please cite
         "P. Giannozzi et al., J. Phys.:Condens. Matter 21 395502 (2009);
         "P. Giannozzi et al., J. Phys.:Condens. Matter 29 465901 (2017);
         "P. Giannozzi et al., J. Chem. Phys. 152 154105 (2020);
          URL http://www.quantum-espresso.org", 
     in publications or presentations arising from this work. More details at
     http://www.quantum-espresso.org/quote

     Parallel version (MPI), running on     1 processors

     MPI processes distributed on     1 nodes
     1352 MiB available memory on the printing compute node when the environment starts

     Reading input from espresso.pwi
Warning: card &CELL ignored
Warning: card &FCP ignored
Warning: card &RISM ignored

     Current dimensions of program PWSCF are:
     Max number of different atomic species (ntypx) = 10
     Max number of k-points (npk) =  40000
     Max angular momentum in pseudopotentials (lmaxx) =  4
     file Cr.pbe-spn-kjpaw_psl.1.0.0.UPF: wavefunction(s)  3S 3P 3D renormalized
     Message from routine setup:
     using ibrav=0 with symmetry is DISCOURAGED, use correct ibrav instead

     Subspace diagonalization in iterative solution of the eigenvalue problem:
     a serial algorithm will be used


     G-vector sticks info
     --------------------
     sticks:   dense  smooth     PW     G-vecs:    dense   smooth      PW
     Sum         527     261    117                 7635     2659     767

     Using Slab Decomposition



     bravais-lattice index     =            0
     lattice parameter (alat)  =       4.6609  a.u.
     unit-cell volume          =      77.9473 (a.u.)^3
     number of atoms/cell      =            1
     number of atomic types    =            1
     number of electrons       =        14.00
     number of Kohn-Sham states=           11
     kinetic-energy cutoff     =      40.0000  Ry
     charge density cutoff     =     320.0000  Ry
     scf convergence threshold =      1.0E-06
     mixing beta               =       0.7000
     number of iterations used =            8  plain     mixing
     Exchange-correlation= SLA  PW   PBX  PBC
                           (   1   4   3   4   0   0   0)

     celldm(1)=   4.660950  celldm(2)=   0.000000  celldm(3)=   0.000000
     celldm(4)=   0.000000  celldm(5)=   0.000000  celldm(6)=   0.000000

     crystal axes: (cart. coord. in units of alat)
               a(1) = (  -0.577350   0.577350   0.577350 )  
               a(2) = (   0.577350  -0.577350   0.577350 )  
               a(3) = (   0.577350   0.577350  -0.577350 )  

     reciprocal axes: (cart. coord. in units 2 pi/alat)
               b(1) = (  0.000000  0.866025  0.866025 )  
               b(2) = (  0.866025  0.000000  0.866025 )  
               b(3) = (  0.866025  0.866025  0.000000 )  


     PseudoPot. # 1 for Cr read from file:
     /home/kenobi/Workspaces/PHYS400/pseudopotentials/Cr.pbe-spn-kjpaw_psl.1.0.0.UPF
     MD5 check sum: 198f1a2427a48552563eee314eba32ba
     Pseudo is Projector augmented-wave + core cor, Zval = 14.0
     Generated using &quot;atomic&quot; code by A. Dal Corso  v.6.3
     Shape of augmentation charge: PSQ
     Using radial grid of 1183 points,  6 beta functions with: 
                l(1) =   0
                l(2) =   0
                l(3) =   1
                l(4) =   1
                l(5) =   2
                l(6) =   2
     Q(r) pseudized with 0 coefficients 


     atomic species   valence    mass     pseudopotential
     Cr               14.00    51.99610     Cr( 1.00)

     Starting magnetic structure 
     atomic species   magnetization
     Cr              0.000

     48 Sym. Ops., with inversion, found



   Cartesian axes

     site n.     atom                  positions (alat units)
         1        Cr     tau(   1) = (   0.0000000   0.0000000   0.0000000  )

     number of k points=    16  Marzari-Vanderbilt smearing, width (Ry)=  0.0200
                       cart. coord. in units 2pi/alat
        k(    1) = (   0.0000000   0.0000000   0.0000000), wk =   0.0046296
        k(    2) = (   0.1443376   0.1443376   0.0000000), wk =   0.0555556
        k(    3) = (   0.2886751   0.2886751   0.0000000), wk =   0.0555556
        k(    4) = (  -0.4330127  -0.4330127   0.0000000), wk =   0.0277778
        k(    5) = (   0.2886751   0.1443376   0.1443376), wk =   0.1111111
        k(    6) = (   0.4330127   0.2886751   0.1443376), wk =   0.2222222
        k(    7) = (   0.5773503   0.2886751   0.2886751), wk =   0.0370370
        k(    8) = (   0.2886751   0.2886751   0.2886751), wk =   0.0370370
        k(    9) = (   0.4330127   0.4330127   0.2886751), wk =   0.0555556
        k(   10) = (   0.0000000   0.0000000   0.2886751), wk =   0.0277778
        k(   11) = (  -0.0000000  -0.1443376   0.4330127), wk =   0.1111111
        k(   12) = (  -0.8660254  -0.2886751  -0.2886751), wk =   0.0555556
        k(   13) = (  -0.7216878  -0.1443376  -0.2886751), wk =   0.1111111
        k(   14) = (  -0.0000000  -0.0000000   0.5773503), wk =   0.0277778
        k(   15) = (  -0.8660254  -0.1443376  -0.1443376), wk =   0.0555556
        k(   16) = (  -0.8660254  -0.8660254  -0.8660254), wk =   0.0046296

     Dense  grid:     7635 G-vectors     FFT dimensions: (  27,  27,  27)

     Smooth grid:     2659 G-vectors     FFT dimensions: (  20,  20,  20)

     Estimated max dynamical RAM per process >      34.53 MB

     Check: negative core charge=   -0.000011
     Generating pointlists ...
     new r_m :   0.4125 (alat units)  1.9226 (a.u.) for type    1

     Initial potential from superposition of free atoms

     starting charge      13.9992, renormalised to      14.0000
     Starting wfcs are   10 randomized atomic wfcs +    1 random wfcs
     Checking if some PAW data can be deallocated... 

     total cpu time spent up to now is        1.0 secs

     Self-consistent Calculation

     iteration #  1     ecut=    40.00 Ry     beta= 0.70
     Davidson diagonalization with overlap
     ethr =  1.00E-02,  avg # of iterations =  3.0

     Threshold (ethr) on eigenvalues was too large:
     Diagonalizing with lowered threshold

     Davidson diagonalization with overlap
     ethr =  6.73E-04,  avg # of iterations =  1.4

     total cpu time spent up to now is        1.9 secs

     total energy              =    -248.15484430 Ry
     estimated scf accuracy    <       0.09834787 Ry

     total magnetization       =     0.00 Bohr mag/cell
     absolute magnetization    =     0.00 Bohr mag/cell

     iteration #  2     ecut=    40.00 Ry     beta= 0.70
     Davidson diagonalization with overlap
     ethr =  7.02E-04,  avg # of iterations =  2.9

     total cpu time spent up to now is        2.7 secs

     total energy              =    -248.17780323 Ry
     estimated scf accuracy    <       0.11212413 Ry

     total magnetization       =     0.00 Bohr mag/cell
     absolute magnetization    =     0.00 Bohr mag/cell

     iteration #  3     ecut=    40.00 Ry     beta= 0.70
     Davidson diagonalization with overlap
     ethr =  7.02E-04,  avg # of iterations =  2.0

     total cpu time spent up to now is        3.3 secs

     total energy              =    -248.20116596 Ry
     estimated scf accuracy    <       0.00024530 Ry

     total magnetization       =     0.00 Bohr mag/cell
     absolute magnetization    =     0.00 Bohr mag/cell

     iteration #  4     ecut=    40.00 Ry     beta= 0.70
     Davidson diagonalization with overlap
     ethr =  1.75E-06,  avg # of iterations =  4.0

     total cpu time spent up to now is        4.1 secs

     total energy              =    -248.20129619 Ry
     estimated scf accuracy    <       0.00011017 Ry

     total magnetization       =     0.00 Bohr mag/cell
     absolute magnetization    =     0.00 Bohr mag/cell

     iteration #  5     ecut=    40.00 Ry     beta= 0.70
     Davidson diagonalization with overlap
     ethr =  7.87E-07,  avg # of iterations =  1.9

     total cpu time spent up to now is        4.8 secs

     total energy              =    -248.20131120 Ry
     estimated scf accuracy    <       0.00000342 Ry

     total magnetization       =     0.00 Bohr mag/cell
     absolute magnetization    =     0.00 Bohr mag/cell

     iteration #  6     ecut=    40.00 Ry     beta= 0.70
     Davidson diagonalization with overlap
     ethr =  2.44E-08,  avg # of iterations =  3.5

     Magnetic moment per site  (integrated on atomic sphere of radius R)
     atom   1 (R=0.413)  charge= 12.2213  magn=  0.0001

     total cpu time spent up to now is        5.5 secs

     End of self-consistent calculation

 ------ SPIN UP ------------


          k = 0.0000 0.0000 0.0000 (   321 PWs)   bands (ev):

   -52.3792 -23.0804 -23.0804 -23.0804  11.6471  18.6480  18.6480  18.6480
    20.7197  20.7197  41.9322

          k = 0.1443 0.1443 0.0000 (   341 PWs)   bands (ev):

   -52.3284 -23.3422 -23.1683 -23.1078  12.7956  18.2200  18.4973  19.4442
    20.3896  20.7579  39.1113

          k = 0.2887 0.2887 0.0000 (   330 PWs)   bands (ev):

   -52.2237 -23.7786 -23.3030 -23.1033  14.8583  17.4445  18.6920  20.5515
    20.9289  21.2996  33.2641

          k =-0.4330-0.4330 0.0000 (   328 PWs)   bands (ev):

   -52.1710 -24.0049 -23.3762 -23.0998  15.0916  17.0888  20.6693  20.7147
    21.0611  22.4245  29.4598

          k = 0.2887 0.1443 0.1443 (   333 PWs)   bands (ev):

   -52.2500 -23.6332 -23.2642 -23.1514  14.6374  17.7525  17.8786  20.1999
    20.9457  21.1855  36.2118

          k = 0.4330 0.2887 0.1443 (   331 PWs)   bands (ev):

   -52.1712 -23.8905 -23.4354 -23.1708  15.7688  17.2289  18.4640  20.5690
    21.2598  23.7783  30.7874

          k = 0.5774 0.2887 0.2887 (   333 PWs)   bands (ev):

   -52.1450 -23.7243 -23.7243 -23.2092  16.6479  17.4327  17.4327  20.9847
    20.9847  28.2081  28.2081

          k = 0.2887 0.2887 0.2887 (   336 PWs)   bands (ev):

   -52.1895 -23.8089 -23.3142 -23.3142  16.5968  17.1163  17.1163  20.9192
    20.9192  23.9081  33.7479

          k = 0.4330 0.4330 0.2887 (   330 PWs)   bands (ev):

   -52.1588 -23.7733 -23.5079 -23.3309  16.6177  16.9519  18.0227  21.0088
    21.1059  26.8649  29.4858

          k = 0.0000 0.0000 0.2887 (   333 PWs)   bands (ev):

   -52.2803 -23.3806 -23.2412 -23.2412  13.8279  18.7125  18.7125  19.1713
    19.4281  21.2901  38.5572

          k =-0.0000-0.1443 0.4330 (   333 PWs)   bands (ev):

   -52.1839 -23.7431 -23.3972 -23.2639  15.6305  17.6997  18.2980  19.7505
    21.1335  22.1775  33.9038

          k =-0.8660-0.2887-0.2887 (   328 PWs)   bands (ev):

   -52.1351 -23.9340 -23.4677 -23.2518  15.7721  17.8766  18.0114  19.9769
    22.3238  24.4731  29.4430

          k =-0.7217-0.1443-0.2887 (   332 PWs)   bands (ev):

   -52.1173 -23.8224 -23.6138 -23.3136  16.5661  16.6764  18.2761  20.4423
    21.5618  25.6250  31.4180

          k =-0.0000-0.0000 0.5774 (   334 PWs)   bands (ev):

   -52.1036 -23.6840 -23.5648 -23.5648  16.0668  16.4266  20.0891  20.0891
    21.1128  24.3263  34.4428

          k =-0.8660-0.1443-0.1443 (   334 PWs)   bands (ev):

   -52.0632 -23.7919 -23.6363 -23.5709  15.7571  15.9073  20.3315  20.7068
    22.1276  28.1002  29.6709

          k =-0.8660-0.8660-0.8660 (   370 PWs)   bands (ev):

   -52.0281 -23.7520 -23.7520 -23.7520  15.2152  15.2152  22.0253  22.0253
    22.0253  30.1814  30.1814

 ------ SPIN DOWN ----------


          k = 0.0000 0.0000 0.0000 (   321 PWs)   bands (ev):

   -52.3790 -23.0802 -23.0802 -23.0802  11.6471  18.6482  18.6482  18.6482
    20.7198  20.7198  41.9321

          k = 0.1443 0.1443 0.0000 (   341 PWs)   bands (ev):

   -52.3282 -23.3421 -23.1682 -23.1076  12.7956  18.2202  18.4975  19.4445
    20.3897  20.7580  39.1113

          k = 0.2887 0.2887 0.0000 (   330 PWs)   bands (ev):

   -52.2235 -23.7785 -23.3028 -23.1032  14.8584  17.4447  18.6920  20.5517
    20.9289  21.2999  33.2642

          k =-0.4330-0.4330 0.0000 (   328 PWs)   bands (ev):

   -52.1708 -24.0047 -23.3760 -23.0996  15.0916  17.0890  20.6692  20.7148
    21.0612  22.4248  29.4599

          k = 0.2887 0.1443 0.1443 (   333 PWs)   bands (ev):

   -52.2499 -23.6330 -23.2640 -23.1512  14.6374  17.7526  17.8788  20.2000
    20.9459  21.1857  36.2118

          k = 0.4330 0.2887 0.1443 (   331 PWs)   bands (ev):

   -52.1710 -23.8904 -23.4352 -23.1706  15.7689  17.2291  18.4640  20.5691
    21.2599  23.7784  30.7875

          k = 0.5774 0.2887 0.2887 (   333 PWs)   bands (ev):

   -52.1448 -23.7242 -23.7242 -23.2090  16.6481  17.4328  17.4328  20.9848
    20.9848  28.2081  28.2081

          k = 0.2887 0.2887 0.2887 (   336 PWs)   bands (ev):

   -52.1893 -23.8087 -23.3140 -23.3140  16.5968  17.1164  17.1164  20.9193
    20.9193  23.9082  33.7479

          k = 0.4330 0.4330 0.2887 (   330 PWs)   bands (ev):

   -52.1586 -23.7732 -23.5078 -23.3307  16.6178  16.9521  18.0228  21.0089
    21.1060  26.8650  29.4859

          k = 0.0000 0.0000 0.2887 (   333 PWs)   bands (ev):

   -52.2801 -23.3804 -23.2410 -23.2410  13.8278  18.7127  18.7127  19.1714
    19.4283  21.2901  38.5571

          k =-0.0000-0.1443 0.4330 (   333 PWs)   bands (ev):

   -52.1837 -23.7429 -23.3970 -23.2638  15.6305  17.6997  18.2982  19.7506
    21.1338  22.1776  33.9038

          k =-0.8660-0.2887-0.2887 (   328 PWs)   bands (ev):

   -52.1349 -23.9339 -23.4675 -23.2517  15.7722  17.8766  18.0116  19.9770
    22.3241  24.4731  29.4431

          k =-0.7217-0.1443-0.2887 (   332 PWs)   bands (ev):

   -52.1171 -23.8222 -23.6136 -23.3134  16.5661  16.6764  18.2762  20.4425
    21.5620  25.6251  31.4181

          k =-0.0000-0.0000 0.5774 (   334 PWs)   bands (ev):

   -52.1035 -23.6838 -23.5646 -23.5646  16.0668  16.4266  20.0893  20.0893
    21.1130  24.3263  34.4429

          k =-0.8660-0.1443-0.1443 (   334 PWs)   bands (ev):

   -52.0630 -23.7917 -23.6361 -23.5707  15.7571  15.9073  20.3317  20.7070
    22.1278  28.1002  29.6710

          k =-0.8660-0.8660-0.8660 (   370 PWs)   bands (ev):

   -52.0279 -23.7518 -23.7518 -23.7518  15.2152  15.2152  22.0255  22.0255
    22.0255  30.1814  30.1814

     the Fermi energy is    19.5952 ev

!    total energy              =    -248.20131268 Ry
     total all-electron energy =     -2101.733991 Ry
     estimated scf accuracy    <       0.00000021 Ry
     smearing contrib. (-TS)   =      -0.00045304 Ry
     internal energy E=F+TS    =    -248.20085964 Ry

     The total energy is F=E-TS. E is the sum of the following terms:
     one-electron contribution =     -55.42230681 Ry
     hartree contribution      =      36.28191683 Ry
     xc contribution           =     -22.28367204 Ry
     ewald contribution        =    -132.53244319 Ry
     one-center paw contrib.   =     -74.24435444 Ry

     total magnetization       =     0.00 Bohr mag/cell
     absolute magnetization    =     0.00 Bohr mag/cell

     convergence has been achieved in   6 iterations

     Forces acting on atoms (cartesian axes, Ry/au):

     atom    1 type  1   force =     0.00000000    0.00000000    0.00000000

     Total force =     0.000000     Total SCF correction =     0.000000


     Computing stress (Cartesian axis) and pressure

          total   stress  (Ry/bohr**3)                   (kbar)     P=     -317.72
  -0.00215983   0.00000000   0.00000000         -317.72        0.00        0.00
   0.00000000  -0.00215983   0.00000000            0.00     -317.72        0.00
   0.00000000   0.00000000  -0.00215983            0.00        0.00     -317.72


     Writing all to output data dir ./pwscf.save/ :
     XML data file, charge density, pseudopotentials, collected wavefunctions

     init_run     :      0.77s CPU      0.83s WALL (       1 calls)
     electrons    :      4.30s CPU      4.55s WALL (       1 calls)
     forces       :      0.07s CPU      0.07s WALL (       1 calls)
     stress       :      0.29s CPU      0.29s WALL (       1 calls)

     Called by init_run:
     wfcinit      :      0.07s CPU      0.07s WALL (       1 calls)
     potinit      :      0.41s CPU      0.46s WALL (       1 calls)
     hinit0       :      0.26s CPU      0.26s WALL (       1 calls)

     Called by electrons:
     c_bands      :      1.36s CPU      1.38s WALL (       7 calls)
     sum_band     :      0.47s CPU      0.48s WALL (       7 calls)
     v_of_rho     :      0.11s CPU      0.11s WALL (       7 calls)
     newd         :      0.15s CPU      0.19s WALL (       7 calls)
     PAW_pot      :      2.60s CPU      2.84s WALL (       7 calls)
     mix_rho      :      0.01s CPU      0.01s WALL (       7 calls)

     Called by c_bands:
     init_us_2    :      0.03s CPU      0.03s WALL (     544 calls)
     cegterg      :      1.31s CPU      1.33s WALL (     224 calls)

     Called by *egterg:
     cdiaghg      :      0.08s CPU      0.08s WALL (     789 calls)
     h_psi        :      1.03s CPU      1.04s WALL (     853 calls)
     s_psi        :      0.04s CPU      0.04s WALL (     853 calls)
     g_psi        :      0.00s CPU      0.00s WALL (     597 calls)

     Called by h_psi:
     h_psi:calbec :      0.06s CPU      0.06s WALL (     853 calls)
     vloc_psi     :      0.92s CPU      0.93s WALL (     853 calls)
                                        0.00s GPU  (     853 calls)
     add_vuspsi   :      0.04s CPU      0.04s WALL (     853 calls)

     General routines
     calbec       :      0.13s CPU      0.14s WALL (    1621 calls)
     fft          :      0.06s CPU      0.06s WALL (     215 calls)
     ffts         :      0.00s CPU      0.00s WALL (      28 calls)
     fftw         :      1.01s CPU      1.03s WALL (   15570 calls)
     interpolate  :      0.01s CPU      0.01s WALL (      14 calls)

     Parallel routines

     PWSCF        :      5.55s CPU      5.87s WALL


   This run was terminated on:  16:10:58  15Mar2026            

=------------------------------------------------------------------------------=
   JOB DONE.
=------------------------------------------------------------------------------=
