
     Program PWSCF v.7.5 starts on 15Mar2026 at 16: 9:53 

     This program is part of the open-source Quantum ESPRESSO suite
     for quantum simulation of materials; please cite
         "P. Giannozzi et al., J. Phys.:Condens. Matter 21 395502 (2009);
         "P. Giannozzi et al., J. Phys.:Condens. Matter 29 465901 (2017);
         "P. Giannozzi et al., J. Chem. Phys. 152 154105 (2020);
          URL http://www.quantum-espresso.org", 
     in publications or presentations arising from this work. More details at
     http://www.quantum-espresso.org/quote

     Parallel version (MPI), running on     1 processors

     MPI processes distributed on     1 nodes
     1444 MiB available memory on the printing compute node when the environment starts

     Reading input from espresso.pwi
Warning: card &CELL ignored
Warning: card &FCP ignored
Warning: card &RISM ignored

     Current dimensions of program PWSCF are:
     Max number of different atomic species (ntypx) = 10
     Max number of k-points (npk) =  40000
     Max angular momentum in pseudopotentials (lmaxx) =  4
     file Al.pbe-n-kjpaw_psl.1.0.0.UPF: wavefunction(s)  3S 3P renormalized
     Message from routine setup:
     using ibrav=0 with symmetry is DISCOURAGED, use correct ibrav instead

     Subspace diagonalization in iterative solution of the eigenvalue problem:
     a serial algorithm will be used


     G-vector sticks info
     --------------------
     sticks:   dense  smooth     PW     G-vecs:    dense   smooth      PW
     Sum         661     337    109                11191     3943     749

     Using Slab Decomposition



     bravais-lattice index     =            0
     lattice parameter (alat)  =       5.4839  a.u.
     unit-cell volume          =     116.6161 (a.u.)^3
     number of atoms/cell      =            1
     number of atomic types    =            1
     number of electrons       =         3.00
     number of Kohn-Sham states=            6
     kinetic-energy cutoff     =      40.0000  Ry
     charge density cutoff     =     320.0000  Ry
     scf convergence threshold =      1.0E-06
     mixing beta               =       0.7000
     number of iterations used =            8  plain     mixing
     Exchange-correlation= SLA  PW   PBX  PBC
                           (   1   4   3   4   0   0   0)

     celldm(1)=   5.483921  celldm(2)=   0.000000  celldm(3)=   0.000000
     celldm(4)=   0.000000  celldm(5)=   0.000000  celldm(6)=   0.000000

     crystal axes: (cart. coord. in units of alat)
               a(1) = (   0.000000   0.707107   0.707107 )  
               a(2) = (   0.707107   0.000000   0.707107 )  
               a(3) = (   0.707107   0.707107   0.000000 )  

     reciprocal axes: (cart. coord. in units 2 pi/alat)
               b(1) = ( -0.707107  0.707107  0.707107 )  
               b(2) = (  0.707107 -0.707107  0.707107 )  
               b(3) = (  0.707107  0.707107 -0.707107 )  


     PseudoPot. # 1 for Al read from file:
     /home/kenobi/Workspaces/PHYS400/pseudopotentials/Al.pbe-n-kjpaw_psl.1.0.0.UPF
     MD5 check sum: 502b6b27b9c6270cab5dd1084b96fa6d
     Pseudo is Projector augmented-wave + core cor, Zval =  3.0
     Generated using &quot;atomic&quot; code by A. Dal Corso  v.6.3
     Shape of augmentation charge: PSQ
     Using radial grid of 1135 points,  6 beta functions with: 
                l(1) =   0
                l(2) =   0
                l(3) =   1
                l(4) =   1
                l(5) =   2
                l(6) =   2
     Q(r) pseudized with 0 coefficients 


     atomic species   valence    mass     pseudopotential
     Al                3.00    26.98154     Al( 1.00)

     48 Sym. Ops., with inversion, found



   Cartesian axes

     site n.     atom                  positions (alat units)
         1        Al     tau(   1) = (   0.0000000   0.0000000   0.0000000  )

     number of k points=    16  Marzari-Vanderbilt smearing, width (Ry)=  0.0200
                       cart. coord. in units 2pi/alat
        k(    1) = (   0.0000000   0.0000000   0.0000000), wk =   0.0092593
        k(    2) = (   0.1178511   0.1178511  -0.1178511), wk =   0.0740741
        k(    3) = (   0.2357023   0.2357023  -0.2357023), wk =   0.0740741
        k(    4) = (  -0.3535534  -0.3535534   0.3535534), wk =   0.0370370
        k(    5) = (   0.2357023   0.0000000   0.0000000), wk =   0.0555556
        k(    6) = (   0.3535534   0.1178511  -0.1178511), wk =   0.2222222
        k(    7) = (  -0.2357023  -0.4714045   0.4714045), wk =   0.2222222
        k(    8) = (  -0.1178511  -0.3535534   0.3535534), wk =   0.2222222
        k(    9) = (   0.0000000  -0.2357023   0.2357023), wk =   0.1111111
        k(   10) = (   0.4714045   0.0000000   0.0000000), wk =   0.0555556
        k(   11) = (  -0.1178511  -0.5892557   0.5892557), wk =   0.2222222
        k(   12) = (  -0.0000000  -0.4714045   0.4714045), wk =   0.1111111
        k(   13) = (  -0.7071068   0.0000000   0.0000000), wk =   0.0277778
        k(   14) = (  -0.2357023  -0.4714045   0.7071068), wk =   0.2222222
        k(   15) = (  -0.1178511  -0.3535534   0.5892557), wk =   0.2222222
        k(   16) = (  -0.7071068   0.2357023   0.0000000), wk =   0.1111111

     Dense  grid:    11191 G-vectors     FFT dimensions: (  32,  32,  32)

     Smooth grid:     3943 G-vectors     FFT dimensions: (  24,  24,  24)

     Estimated max dynamical RAM per process >      43.52 MB

     Initial potential from superposition of free atoms

     starting charge       2.9977, renormalised to       3.0000
     Starting wfcs are    4 randomized atomic wfcs +    2 random wfcs
     Checking if some PAW data can be deallocated... 

     total cpu time spent up to now is        0.6 secs

     Self-consistent Calculation

     iteration #  1     ecut=    40.00 Ry     beta= 0.70
     Davidson diagonalization with overlap
     ethr =  1.00E-02,  avg # of iterations =  6.4

     Threshold (ethr) on eigenvalues was too large:
     Diagonalizing with lowered threshold

     Davidson diagonalization with overlap
     ethr =  1.77E-04,  avg # of iterations =  2.8

     total cpu time spent up to now is        1.1 secs

     total energy              =     -39.50741798 Ry
     estimated scf accuracy    <       0.00519963 Ry

     iteration #  2     ecut=    40.00 Ry     beta= 0.70
     Davidson diagonalization with overlap
     ethr =  1.73E-04,  avg # of iterations =  1.0

     total cpu time spent up to now is        1.4 secs

     total energy              =     -39.50737769 Ry
     estimated scf accuracy    <       0.00036598 Ry

     iteration #  3     ecut=    40.00 Ry     beta= 0.70
     Davidson diagonalization with overlap
     ethr =  1.22E-05,  avg # of iterations =  1.8

     total cpu time spent up to now is        1.7 secs

     End of self-consistent calculation

          k = 0.0000 0.0000 0.0000 (   531 PWs)   bands (ev):

    -3.3867  19.7914  19.7915  20.9472  20.9472  20.9472

          k = 0.1179 0.1179-0.1179 (   513 PWs)   bands (ev):

    -2.6556  13.9008  18.4484  18.4489  21.5822  22.8881

          k = 0.2357 0.2357-0.2357 (   492 PWs)   bands (ev):

    -0.4839   7.9156  17.8635  17.8635  20.4066  20.4072

          k =-0.3536-0.3536 0.3536 (   502 PWs)   bands (ev):

     3.0239   3.1157  18.3641  18.3641  18.6789  22.1082

          k = 0.2357 0.0000 0.0000 (   504 PWs)   bands (ev):

    -2.4127  16.1641  16.1642  16.4699  19.1121  19.6717

          k = 0.3536 0.1179-0.1179 (   497 PWs)   bands (ev):

    -0.7237  10.3600  15.1282  15.8838  16.7462  21.4615

          k =-0.2357-0.4714 0.4714 (   496 PWs)   bands (ev):

     2.3616   5.1612  13.4654  15.3472  17.1004  22.9491

          k =-0.1179-0.3536 0.3536 (   502 PWs)   bands (ev):

     1.1836   6.7521  12.3749  16.8175  18.7179  21.9216

          k = 0.0000-0.2357 0.2357 (   503 PWs)   bands (ev):

    -1.4452  11.8349  13.1108  19.4742  21.4964  21.6872

          k = 0.4714 0.0000 0.0000 (   500 PWs)   bands (ev):

     0.4693  11.6910  13.6416  13.6596  13.6596  16.9483

          k =-0.1179-0.5893 0.5893 (   489 PWs)   bands (ev):

     3.0471   8.4878   8.8368  13.4536  14.9625  19.9178

          k =-0.0000-0.4714 0.4714 (   506 PWs)   bands (ev):

     4.2265   6.4215   7.7544  14.5061  16.2496  25.5378

          k =-0.7071 0.0000 0.0000 (   468 PWs)   bands (ev):

     4.6221   5.8388  12.6793  12.8243  12.8243  16.0776

          k =-0.2357-0.4714 0.7071 (   501 PWs)   bands (ev):

     1.4183   9.1290  10.4703  12.6104  19.9381  21.3688

          k =-0.1179-0.3536 0.5893 (   490 PWs)   bands (ev):

     4.8271   4.9877  10.4145  10.7855  21.0176  21.5540

          k =-0.7071 0.2357 0.0000 (   490 PWs)   bands (ev):

     5.5212   6.7796   8.2264   9.6167  19.0714  20.7027

     the Fermi energy is     7.7364 ev

!    total energy              =     -39.50738658 Ry
     total all-electron energy =      -485.650167 Ry
     estimated scf accuracy    <       0.00000045 Ry
     smearing contrib. (-TS)   =      -0.00050411 Ry
     internal energy E=F+TS    =     -39.50688247 Ry

     The total energy is F=E-TS. E is the sum of the following terms:
     one-electron contribution =       3.05092096 Ry
     hartree contribution      =       0.00530360 Ry
     xc contribution           =      -2.56622902 Ry
     ewald contribution        =      -5.32062396 Ry
     one-center paw contrib.   =     -34.67625405 Ry

     convergence has been achieved in   3 iterations

     Forces acting on atoms (cartesian axes, Ry/au):

     atom    1 type  1   force =     0.00000000    0.00000000    0.00000000

     Total force =     0.000000     Total SCF correction =     0.000000


     Computing stress (Cartesian axis) and pressure

          total   stress  (Ry/bohr**3)                   (kbar)     P=      -30.10
  -0.00020459   0.00000000   0.00000000          -30.10        0.00        0.00
   0.00000000  -0.00020459   0.00000000            0.00      -30.10        0.00
   0.00000000   0.00000000  -0.00020459            0.00        0.00      -30.10


     Writing all to output data dir ./pwscf.save/ :
     XML data file, charge density, pseudopotentials, collected wavefunctions

     init_run     :      0.49s CPU      0.52s WALL (       1 calls)
     electrons    :      1.05s CPU      1.06s WALL (       1 calls)
     forces       :      0.06s CPU      0.06s WALL (       1 calls)
     stress       :      0.36s CPU      0.36s WALL (       1 calls)

     Called by init_run:
     wfcinit      :      0.02s CPU      0.03s WALL (       1 calls)
     potinit      :      0.19s CPU      0.21s WALL (       1 calls)
     hinit0       :      0.23s CPU      0.23s WALL (       1 calls)

     Called by electrons:
     c_bands      :      0.29s CPU      0.29s WALL (       4 calls)
     sum_band     :      0.15s CPU      0.16s WALL (       4 calls)
     v_of_rho     :      0.04s CPU      0.04s WALL (       4 calls)
     newd         :      0.11s CPU      0.12s WALL (       4 calls)
     PAW_pot      :      0.65s CPU      0.67s WALL (       4 calls)
     mix_rho      :      0.00s CPU      0.00s WALL (       4 calls)

     Called by c_bands:
     init_us_2    :      0.02s CPU      0.02s WALL (     176 calls)
     cegterg      :      0.27s CPU      0.27s WALL (      64 calls)

     Called by *egterg:
     cdiaghg      :      0.01s CPU      0.01s WALL (     239 calls)
     h_psi        :      0.24s CPU      0.24s WALL (     271 calls)
     s_psi        :      0.01s CPU      0.01s WALL (     271 calls)
     g_psi        :      0.00s CPU      0.00s WALL (     191 calls)

     Called by h_psi:
     h_psi:calbec :      0.02s CPU      0.02s WALL (     271 calls)
     vloc_psi     :      0.21s CPU      0.21s WALL (     271 calls)
                                        0.00s GPU  (     271 calls)
     add_vuspsi   :      0.01s CPU      0.01s WALL (     271 calls)

     General routines
     calbec       :      0.04s CPU      0.04s WALL (     607 calls)
     fft          :      0.02s CPU      0.02s WALL (      76 calls)
     ffts         :      0.00s CPU      0.00s WALL (       8 calls)
     fftw         :      0.22s CPU      0.22s WALL (    2712 calls)
     interpolate  :      0.00s CPU      0.00s WALL (       4 calls)

     Parallel routines

     PWSCF        :      2.07s CPU      2.12s WALL


   This run was terminated on:  16: 9:55  15Mar2026            

=------------------------------------------------------------------------------=
   JOB DONE.
=------------------------------------------------------------------------------=
