
     Program PWSCF v.7.5 starts on 15Mar2026 at 15:53:54 

     This program is part of the open-source Quantum ESPRESSO suite
     for quantum simulation of materials; please cite
         "P. Giannozzi et al., J. Phys.:Condens. Matter 21 395502 (2009);
         "P. Giannozzi et al., J. Phys.:Condens. Matter 29 465901 (2017);
         "P. Giannozzi et al., J. Chem. Phys. 152 154105 (2020);
          URL http://www.quantum-espresso.org", 
     in publications or presentations arising from this work. More details at
     http://www.quantum-espresso.org/quote

     Parallel version (MPI), running on     1 processors

     MPI processes distributed on     1 nodes
     3440 MiB available memory on the printing compute node when the environment starts

     Reading input from espresso.pwi
Warning: card &CELL ignored
Warning: card &FCP ignored
Warning: card &RISM ignored

     Current dimensions of program PWSCF are:
     Max number of different atomic species (ntypx) = 10
     Max number of k-points (npk) =  40000
     Max angular momentum in pseudopotentials (lmaxx) =  4
     file Fe.pbe-spn-kjpaw_psl.1.0.0.UPF: wavefunction(s)  3P 3D renormalized
     Message from routine setup:
     using ibrav=0 with symmetry is DISCOURAGED, use correct ibrav instead

     Subspace diagonalization in iterative solution of the eigenvalue problem:
     a serial algorithm will be used


     G-vector sticks info
     --------------------
     sticks:   dense  smooth     PW     G-vecs:    dense   smooth      PW
     Sum         483     241    103                 6819     2347     683

     Using Slab Decomposition



     bravais-lattice index     =            0
     lattice parameter (alat)  =       4.5090  a.u.
     unit-cell volume          =      70.5710 (a.u.)^3
     number of atoms/cell      =            1
     number of atomic types    =            1
     number of electrons       =        16.00
     number of Kohn-Sham states=           12
     kinetic-energy cutoff     =      40.0000  Ry
     charge density cutoff     =     320.0000  Ry
     scf convergence threshold =      1.0E-06
     mixing beta               =       0.7000
     number of iterations used =            8  plain     mixing
     Exchange-correlation= SLA  PW   PBX  PBC
                           (   1   4   3   4   0   0   0)

     celldm(1)=   4.509025  celldm(2)=   0.000000  celldm(3)=   0.000000
     celldm(4)=   0.000000  celldm(5)=   0.000000  celldm(6)=   0.000000

     crystal axes: (cart. coord. in units of alat)
               a(1) = (  -0.577350   0.577350   0.577350 )  
               a(2) = (   0.577350  -0.577350   0.577350 )  
               a(3) = (   0.577350   0.577350  -0.577350 )  

     reciprocal axes: (cart. coord. in units 2 pi/alat)
               b(1) = (  0.000000  0.866025  0.866025 )  
               b(2) = (  0.866025  0.000000  0.866025 )  
               b(3) = (  0.866025  0.866025  0.000000 )  


     PseudoPot. # 1 for Fe read from file:
     /home/kenobi/Workspaces/PHYS400/pseudopotentials/Fe.pbe-spn-kjpaw_psl.1.0.0.UPF
     MD5 check sum: fc81f059e5c5069939230b1155715ae8
     Pseudo is Projector augmented-wave + core cor, Zval = 16.0
     Generated using &quot;atomic&quot; code by A. Dal Corso  v.6.3
     Shape of augmentation charge: PSQ
     Using radial grid of 1191 points,  6 beta functions with: 
                l(1) =   0
                l(2) =   0
                l(3) =   1
                l(4) =   1
                l(5) =   2
                l(6) =   2
     Q(r) pseudized with 0 coefficients 


     atomic species   valence    mass     pseudopotential
     Fe               16.00    55.84500     Fe( 1.00)

     Starting magnetic structure 
     atomic species   magnetization
     Fe              0.144

     48 Sym. Ops., with inversion, found



   Cartesian axes

     site n.     atom                  positions (alat units)
         1        Fe     tau(   1) = (   0.0000000   0.0000000   0.0000000  )

     number of k points=    16  Marzari-Vanderbilt smearing, width (Ry)=  0.0200
                       cart. coord. in units 2pi/alat
        k(    1) = (   0.0000000   0.0000000   0.0000000), wk =   0.0046296
        k(    2) = (   0.1443376   0.1443376   0.0000000), wk =   0.0555556
        k(    3) = (   0.2886751   0.2886751   0.0000000), wk =   0.0555556
        k(    4) = (  -0.4330127  -0.4330127   0.0000000), wk =   0.0277778
        k(    5) = (   0.2886751   0.1443376   0.1443376), wk =   0.1111111
        k(    6) = (   0.4330127   0.2886751   0.1443376), wk =   0.2222222
        k(    7) = (   0.5773503   0.2886751   0.2886751), wk =   0.0370370
        k(    8) = (   0.2886751   0.2886751   0.2886751), wk =   0.0370370
        k(    9) = (   0.4330127   0.4330127   0.2886751), wk =   0.0555556
        k(   10) = (   0.0000000   0.0000000   0.2886751), wk =   0.0277778
        k(   11) = (  -0.0000000  -0.1443376   0.4330127), wk =   0.1111111
        k(   12) = (  -0.8660254  -0.2886751  -0.2886751), wk =   0.0555556
        k(   13) = (  -0.7216878  -0.1443376  -0.2886751), wk =   0.1111111
        k(   14) = (  -0.0000000  -0.0000000   0.5773503), wk =   0.0277778
        k(   15) = (  -0.8660254  -0.1443376  -0.1443376), wk =   0.0555556
        k(   16) = (  -0.8660254  -0.8660254  -0.8660254), wk =   0.0046296

     Dense  grid:     6819 G-vectors     FFT dimensions: (  25,  25,  25)

     Smooth grid:     2347 G-vectors     FFT dimensions: (  20,  20,  20)

     Estimated max dynamical RAM per process >      30.96 MB

     Check: negative core charge=   -0.000009
     Generating pointlists ...
     new r_m :   0.4125 (alat units)  1.8600 (a.u.) for type    1

     Initial potential from superposition of free atoms

     starting charge      15.9996, renormalised to      16.0000
     Starting wfcs are   10 randomized atomic wfcs +    2 random wfcs
     Checking if some PAW data can be deallocated... 

     total cpu time spent up to now is        0.9 secs

     Self-consistent Calculation

     iteration #  1     ecut=    40.00 Ry     beta= 0.70
     Davidson diagonalization with overlap
     ethr =  1.00E-02,  avg # of iterations =  3.9

     Threshold (ethr) on eigenvalues was too large:
     Diagonalizing with lowered threshold

     Davidson diagonalization with overlap
     ethr =  4.11E-04,  avg # of iterations =  1.6

     negative rho (up, down):  0.000E+00 1.346E-04

     total cpu time spent up to now is        1.9 secs

     total energy              =    -329.01960347 Ry
     estimated scf accuracy    <       0.06878066 Ry

     total magnetization       =     2.15 Bohr mag/cell
     absolute magnetization    =     2.15 Bohr mag/cell

     iteration #  2     ecut=    40.00 Ry     beta= 0.70
     Davidson diagonalization with overlap
     ethr =  4.30E-04,  avg # of iterations =  2.6

     negative rho (up, down):  0.000E+00 1.275E-04

     total cpu time spent up to now is        2.6 secs

     total energy              =    -329.02860826 Ry
     estimated scf accuracy    <       0.14104117 Ry

     total magnetization       =     2.15 Bohr mag/cell
     absolute magnetization    =     2.20 Bohr mag/cell

     iteration #  3     ecut=    40.00 Ry     beta= 0.70
     Davidson diagonalization with overlap
     ethr =  4.30E-04,  avg # of iterations =  2.1

     negative rho (up, down):  0.000E+00 3.941E-04

     total cpu time spent up to now is        3.3 secs

     total energy              =    -329.05513611 Ry
     estimated scf accuracy    <       0.00083488 Ry

     total magnetization       =     2.14 Bohr mag/cell
     absolute magnetization    =     2.19 Bohr mag/cell

     iteration #  4     ecut=    40.00 Ry     beta= 0.70
     Davidson diagonalization with overlap
     ethr =  5.22E-06,  avg # of iterations =  2.9

     negative rho (up, down):  0.000E+00 4.145E-04

     total cpu time spent up to now is        4.1 secs

     total energy              =    -329.05553778 Ry
     estimated scf accuracy    <       0.00011154 Ry

     total magnetization       =     2.14 Bohr mag/cell
     absolute magnetization    =     2.21 Bohr mag/cell

     iteration #  5     ecut=    40.00 Ry     beta= 0.70
     Davidson diagonalization with overlap
     ethr =  6.97E-07,  avg # of iterations =  2.0

     negative rho (up, down):  0.000E+00 4.143E-04

     total cpu time spent up to now is        4.7 secs

     total energy              =    -329.05558826 Ry
     estimated scf accuracy    <       0.00002658 Ry

     total magnetization       =     2.14 Bohr mag/cell
     absolute magnetization    =     2.22 Bohr mag/cell

     iteration #  6     ecut=    40.00 Ry     beta= 0.70
     Davidson diagonalization with overlap
     ethr =  1.66E-07,  avg # of iterations =  1.6

     negative rho (up, down):  0.000E+00 4.160E-04

     Magnetic moment per site  (integrated on atomic sphere of radius R)
     atom   1 (R=0.413)  charge= 14.3158  magn=  2.1618

     total cpu time spent up to now is        5.4 secs

     End of self-consistent calculation

 ------ SPIN UP ------------


          k = 0.0000 0.0000 0.0000 (   321 PWs)   bands (ev):

   -68.2073 -33.8389 -33.8389 -33.8389  11.2383  17.7819  17.7819  17.7819
    19.2338  19.2338  45.4790  45.4790

          k = 0.1443 0.1443 0.0000 (   307 PWs)   bands (ev):

   -68.1754 -33.8866 -33.8631 -33.8053  12.4191  17.4925  17.8428  18.5541
    19.0684  19.4851  40.6976  43.8086

          k = 0.2887 0.2887 0.0000 (   298 PWs)   bands (ev):

   -68.1195 -34.1784 -33.9037 -33.7840  14.6340  16.9959  18.2007  19.2969
    19.5423  20.2093  33.1155  40.3968

          k =-0.4330-0.4330 0.0000 (   288 PWs)   bands (ev):

   -68.0892 -34.2853 -33.8894 -33.7760  14.9848  16.6754  19.5506  19.6059
    20.6302  21.3470  28.5195  38.9719

          k = 0.2887 0.1443 0.1443 (   302 PWs)   bands (ev):

   -68.1336 -34.0826 -33.8976 -33.8173  14.3359  17.2344  17.3251  18.9997
    19.6152  20.0675  36.8733  38.0653

          k = 0.4330 0.2887 0.1443 (   304 PWs)   bands (ev):

   -68.0936 -34.2490 -34.0069 -33.8544  15.5033  16.7345  17.9224  19.2871
    19.8700  22.7523  30.2538  35.3234

          k = 0.5774 0.2887 0.2887 (   309 PWs)   bands (ev):

   -68.0813 -34.1823 -34.1823 -33.8876  16.2415  16.9139  16.9139  19.6355
    19.6355  27.5152  27.5152  30.5889

          k = 0.2887 0.2887 0.2887 (   300 PWs)   bands (ev):

   -68.1021 -34.1818 -33.9141 -33.9141  16.3398  16.6749  16.6749  19.5023
    19.5023  22.8579  34.0066  34.0066

          k = 0.4330 0.4330 0.2887 (   304 PWs)   bands (ev):

   -68.0877 -34.1986 -34.0340 -33.9316  16.2372  16.5522  17.6052  19.5332
    19.5847  26.1817  28.8389  32.9876

          k = 0.0000 0.0000 0.2887 (   309 PWs)   bands (ev):

   -68.1515 -33.9606 -33.8998 -33.8998  13.4697  18.0107  18.0107  18.2054
    18.4705  19.7244  40.2582  42.2160

          k =-0.0000-0.1443 0.4330 (   299 PWs)   bands (ev):

   -68.0982 -34.1541 -33.9671 -33.8876  15.3336  17.1739  17.6710  18.8505
    20.0530  20.8764  33.8714  38.8306

          k =-0.8660-0.2887-0.2887 (   298 PWs)   bands (ev):

   -68.0723 -34.2719 -34.0028 -33.8888  15.5021  17.2809  17.4271  19.0142
    21.0763  23.7408  28.6099  37.2570

          k =-0.7217-0.1443-0.2887 (   296 PWs)   bands (ev):

   -68.0619 -34.2072 -34.0756 -33.9198  16.1679  16.2780  17.7160  19.4412
    20.4330  24.7523  31.0089  32.1352

          k =-0.0000-0.0000 0.5774 (   297 PWs)   bands (ev):

   -68.0531 -34.1431 -34.0394 -34.0394  15.7398  16.1071  19.2153  19.2153
    20.0514  23.4925  34.6292  34.6292

          k =-0.8660-0.1443-0.1443 (   304 PWs)   bands (ev):

   -68.0329 -34.1869 -34.1149 -34.1059  15.4665  15.5493  19.3106  19.6973
    20.8631  27.7840  29.4373  32.7480

          k =-0.8660-0.8660-0.8660 (   298 PWs)   bands (ev):

   -68.0119 -34.1539 -34.1539 -34.1539  14.9614  14.9614  20.8109  20.8109
    20.8109  30.6304  30.6304  30.6304

 ------ SPIN DOWN ----------


          k = 0.0000 0.0000 0.0000 (   321 PWs)   bands (ev):

   -65.6397 -31.3097 -31.3097 -31.3097  11.4135  19.6305  19.6305  19.6305
    21.9628  21.9628  45.3028  45.3028

          k = 0.1443 0.1443 0.0000 (   307 PWs)   bands (ev):

   -65.6069 -31.3729 -31.3389 -31.2755  12.6123  19.2813  19.6312  20.4535
    21.6951  22.2113  41.1020  43.8717

          k = 0.2887 0.2887 0.0000 (   298 PWs)   bands (ev):

   -65.5461 -31.6908 -31.3868 -31.2562  15.2508  18.6799  19.4266  21.7555
    22.2575  22.3029  34.0167  40.5086

          k =-0.4330-0.4330 0.0000 (   288 PWs)   bands (ev):

   -65.5138 -31.8114 -31.3759 -31.2489  16.2095  18.3174  20.7703  22.1011
    22.3457  23.5043  29.8843  39.0370

          k = 0.2887 0.1443 0.1443 (   302 PWs)   bands (ev):

   -65.5615 -31.5864 -31.3783 -31.2918  14.6560  18.9610  18.9892  21.4975
    21.9644  22.3708  37.5320  38.6151

          k = 0.4330 0.2887 0.1443 (   304 PWs)   bands (ev):

   -65.5174 -31.7676 -31.4971 -31.3297  16.6507  18.3527  19.1713  21.7330
    22.4092  24.3751  31.3190  35.9176

          k = 0.5774 0.2887 0.2887 (   309 PWs)   bands (ev):

   -65.5037 -31.6899 -31.6899 -31.3648  17.7027  18.3589  18.3589  22.0905
    22.0905  28.6336  28.6336  31.4664

          k = 0.2887 0.2887 0.2887 (   300 PWs)   bands (ev):

   -65.5270 -31.6955 -31.3976 -31.3976  16.9430  18.2253  18.2253  22.2121
    22.2121  24.5534  34.7123  34.7125

          k = 0.4330 0.4330 0.2887 (   304 PWs)   bands (ev):

   -65.5109 -31.7096 -31.5297 -31.4159  17.5473  18.0220  18.7606  22.2315
    22.3895  27.3025  29.9277  33.6886

          k = 0.0000 0.0000 0.2887 (   309 PWs)   bands (ev):

   -65.5801 -31.4503 -31.3787 -31.3787  13.7081  19.7983  19.7983  20.3789
    20.6276  22.4668  40.6737  42.7494

          k =-0.0000-0.1443 0.4330 (   299 PWs)   bands (ev):

   -65.5230 -31.6643 -31.4550 -31.3685  16.0722  19.0082  19.4035  20.9026
    22.0828  23.1201  34.7347  39.4747

          k =-0.8660-0.2887-0.2887 (   298 PWs)   bands (ev):

   -65.4949 -31.7927 -31.4947 -31.3698  16.9242  18.8594  19.1251  21.2038
    23.2265  25.0159  29.8653  37.8508

          k =-0.7217-0.1443-0.2887 (   296 PWs)   bands (ev):

   -65.4839 -31.7212 -31.5763 -31.4037  17.5647  18.0511  19.4136  21.4740
    22.5577  26.1086  32.0033  32.8802

          k =-0.0000-0.0000 0.5774 (   297 PWs)   bands (ev):

   -65.4749 -31.6504 -31.5364 -31.5364  17.0851  18.0418  21.0508  21.0508
    22.0976  24.8898  35.2322  35.2322

          k =-0.8660-0.1443-0.1443 (   304 PWs)   bands (ev):

   -65.4524 -31.6990 -31.6161 -31.6035  17.2374  17.2700  21.2024  21.5971
    22.9968  28.6164  30.2577  33.2412

          k =-0.8660-0.8660-0.8660 (   298 PWs)   bands (ev):

   -65.4297 -31.6603 -31.6603 -31.6603  16.7278  16.7278  22.9369  22.9369
    22.9369  30.9295  30.9295  30.9295

     the Fermi energy is    20.4468 ev

!    total energy              =    -329.05559565 Ry
     total all-electron energy =     -2545.352129 Ry
     estimated scf accuracy    <       0.00000052 Ry
     smearing contrib. (-TS)   =       0.00058384 Ry
     internal energy E=F+TS    =    -329.05617949 Ry

     The total energy is F=E-TS. E is the sum of the following terms:
     one-electron contribution =    -101.54347072 Ry
     hartree contribution      =      61.97323952 Ry
     xc contribution           =     -27.80200107 Ry
     ewald contribution        =    -178.93606566 Ry
     one-center paw contrib.   =     -82.74788157 Ry

     total magnetization       =     2.14 Bohr mag/cell
     absolute magnetization    =     2.23 Bohr mag/cell

     convergence has been achieved in   6 iterations

     negative rho (up, down):  0.000E+00 4.160E-04

     Forces acting on atoms (cartesian axes, Ry/au):

     atom    1 type  1   force =     0.00000000    0.00000000    0.00000000

     Total force =     0.000000     Total SCF correction =     0.000000


     Computing stress (Cartesian axis) and pressure


     negative rho (up, down):  0.000E+00 4.160E-04
          total   stress  (Ry/bohr**3)                   (kbar)     P=    -2656.39
  -0.01805777  -0.00000000  -0.00000000        -2656.39       -0.00       -0.00
  -0.00000000  -0.01805777  -0.00000000           -0.00    -2656.39       -0.00
  -0.00000000  -0.00000000  -0.01805777           -0.00       -0.00    -2656.39


     Writing all to output data dir ./pwscf.save/ :
     XML data file, charge density, pseudopotentials, collected wavefunctions

     init_run     :      0.75s CPU      0.81s WALL (       1 calls)
     electrons    :      4.26s CPU      4.51s WALL (       1 calls)
     forces       :      0.06s CPU      0.06s WALL (       1 calls)
     stress       :      0.26s CPU      0.26s WALL (       1 calls)

     Called by init_run:
     wfcinit      :      0.07s CPU      0.07s WALL (       1 calls)
     potinit      :      0.40s CPU      0.45s WALL (       1 calls)
     hinit0       :      0.26s CPU      0.26s WALL (       1 calls)

     Called by electrons:
     c_bands      :      1.37s CPU      1.39s WALL (       7 calls)
     sum_band     :      0.43s CPU      0.44s WALL (       7 calls)
     v_of_rho     :      0.09s CPU      0.09s WALL (       7 calls)
     newd         :      0.13s CPU      0.17s WALL (       7 calls)
     PAW_pot      :      2.62s CPU      2.86s WALL (       7 calls)
     mix_rho      :      0.01s CPU      0.01s WALL (       7 calls)

     Called by c_bands:
     init_us_2    :      0.03s CPU      0.03s WALL (     544 calls)
     cegterg      :      1.33s CPU      1.34s WALL (     224 calls)

     Called by *egterg:
     cdiaghg      :      0.08s CPU      0.08s WALL (     726 calls)
     h_psi        :      1.04s CPU      1.06s WALL (     790 calls)
     s_psi        :      0.04s CPU      0.04s WALL (     790 calls)
     g_psi        :      0.00s CPU      0.00s WALL (     534 calls)

     Called by h_psi:
     h_psi:calbec :      0.06s CPU      0.06s WALL (     790 calls)
     vloc_psi     :      0.94s CPU      0.96s WALL (     790 calls)
                                        0.00s GPU  (     790 calls)
     add_vuspsi   :      0.04s CPU      0.04s WALL (     790 calls)

     General routines
     calbec       :      0.13s CPU      0.13s WALL (    1558 calls)
     fft          :      0.05s CPU      0.05s WALL (     215 calls)
     ffts         :      0.00s CPU      0.00s WALL (      28 calls)
     fftw         :      1.03s CPU      1.05s WALL (   16554 calls)
     interpolate  :      0.01s CPU      0.01s WALL (      14 calls)

     Parallel routines

     PWSCF        :      5.46s CPU      5.78s WALL


   This run was terminated on:  15:54: 0  15Mar2026            

=------------------------------------------------------------------------------=
   JOB DONE.
=------------------------------------------------------------------------------=
