
     Program PWSCF v.7.5 starts on 15Mar2026 at 16:11:23 

     This program is part of the open-source Quantum ESPRESSO suite
     for quantum simulation of materials; please cite
         "P. Giannozzi et al., J. Phys.:Condens. Matter 21 395502 (2009);
         "P. Giannozzi et al., J. Phys.:Condens. Matter 29 465901 (2017);
         "P. Giannozzi et al., J. Chem. Phys. 152 154105 (2020);
          URL http://www.quantum-espresso.org", 
     in publications or presentations arising from this work. More details at
     http://www.quantum-espresso.org/quote

     Parallel version (MPI), running on     1 processors

     MPI processes distributed on     1 nodes
     1386 MiB available memory on the printing compute node when the environment starts

     Reading input from espresso.pwi
Warning: card &CELL ignored
Warning: card &FCP ignored
Warning: card &RISM ignored

     Current dimensions of program PWSCF are:
     Max number of different atomic species (ntypx) = 10
     Max number of k-points (npk) =  40000
     Max angular momentum in pseudopotentials (lmaxx) =  4
     file Cu.pbe-dn-kjpaw_psl.1.0.0.UPF: wavefunction(s)  4S 3D renormalized
     Message from routine setup:
     using ibrav=0 with symmetry is DISCOURAGED, use correct ibrav instead

     Subspace diagonalization in iterative solution of the eigenvalue problem:
     a serial algorithm will be used


     G-vector sticks info
     --------------------
     sticks:   dense  smooth     PW     G-vecs:    dense   smooth      PW
     Sum         511     253     85                 7727     2733     537

     Using Slab Decomposition



     bravais-lattice index     =            0
     lattice parameter (alat)  =       4.8238  a.u.
     unit-cell volume          =      79.3703 (a.u.)^3
     number of atoms/cell      =            1
     number of atomic types    =            1
     number of electrons       =        11.00
     number of Kohn-Sham states=           10
     kinetic-energy cutoff     =      40.0000  Ry
     charge density cutoff     =     320.0000  Ry
     scf convergence threshold =      1.0E-06
     mixing beta               =       0.7000
     number of iterations used =            8  plain     mixing
     Exchange-correlation= SLA  PW   PBX  PBC
                           (   1   4   3   4   0   0   0)

     celldm(1)=   4.823820  celldm(2)=   0.000000  celldm(3)=   0.000000
     celldm(4)=   0.000000  celldm(5)=   0.000000  celldm(6)=   0.000000

     crystal axes: (cart. coord. in units of alat)
               a(1) = (   0.000000   0.707107   0.707107 )  
               a(2) = (   0.707107   0.000000   0.707107 )  
               a(3) = (   0.707107   0.707107   0.000000 )  

     reciprocal axes: (cart. coord. in units 2 pi/alat)
               b(1) = ( -0.707107  0.707107  0.707107 )  
               b(2) = (  0.707107 -0.707107  0.707107 )  
               b(3) = (  0.707107  0.707107 -0.707107 )  


     PseudoPot. # 1 for Cu read from file:
     /home/kenobi/Workspaces/PHYS400/pseudopotentials/Cu.pbe-dn-kjpaw_psl.1.0.0.UPF
     MD5 check sum: cfffd1f38ee05704b3e17f46f1730a6f
     Pseudo is Projector augmented-wave + core cor, Zval = 11.0
     Generated using &quot;atomic&quot; code by A. Dal Corso  v.6.3
     Shape of augmentation charge: PSQ
     Using radial grid of 1199 points,  6 beta functions with: 
                l(1) =   0
                l(2) =   0
                l(3) =   1
                l(4) =   1
                l(5) =   2
                l(6) =   2
     Q(r) pseudized with 0 coefficients 


     atomic species   valence    mass     pseudopotential
     Cu               11.00    63.54600     Cu( 1.00)

     48 Sym. Ops., with inversion, found



   Cartesian axes

     site n.     atom                  positions (alat units)
         1        Cu     tau(   1) = (   0.0000000   0.0000000   0.0000000  )

     number of k points=    16  Marzari-Vanderbilt smearing, width (Ry)=  0.0200
                       cart. coord. in units 2pi/alat
        k(    1) = (   0.0000000   0.0000000   0.0000000), wk =   0.0092593
        k(    2) = (   0.1178511   0.1178511  -0.1178511), wk =   0.0740741
        k(    3) = (   0.2357023   0.2357023  -0.2357023), wk =   0.0740741
        k(    4) = (  -0.3535534  -0.3535534   0.3535534), wk =   0.0370370
        k(    5) = (   0.2357023   0.0000000   0.0000000), wk =   0.0555556
        k(    6) = (   0.3535534   0.1178511  -0.1178511), wk =   0.2222222
        k(    7) = (  -0.2357023  -0.4714045   0.4714045), wk =   0.2222222
        k(    8) = (  -0.1178511  -0.3535534   0.3535534), wk =   0.2222222
        k(    9) = (   0.0000000  -0.2357023   0.2357023), wk =   0.1111111
        k(   10) = (   0.4714045   0.0000000   0.0000000), wk =   0.0555556
        k(   11) = (  -0.1178511  -0.5892557   0.5892557), wk =   0.2222222
        k(   12) = (  -0.0000000  -0.4714045   0.4714045), wk =   0.1111111
        k(   13) = (  -0.7071068   0.0000000   0.0000000), wk =   0.0277778
        k(   14) = (  -0.2357023  -0.4714045   0.7071068), wk =   0.2222222
        k(   15) = (  -0.1178511  -0.3535534   0.5892557), wk =   0.2222222
        k(   16) = (  -0.7071068   0.2357023   0.0000000), wk =   0.1111111

     Dense  grid:     7727 G-vectors     FFT dimensions: (  27,  27,  27)

     Smooth grid:     2733 G-vectors     FFT dimensions: (  20,  20,  20)

     Estimated max dynamical RAM per process >      30.63 MB

     Initial potential from superposition of free atoms

     starting charge      10.9998, renormalised to      11.0000
     Starting wfcs are    9 randomized atomic wfcs +    1 random wfcs
     Checking if some PAW data can be deallocated... 

     total cpu time spent up to now is        0.7 secs

     Self-consistent Calculation

     iteration #  1     ecut=    40.00 Ry     beta= 0.70
     Davidson diagonalization with overlap
     ethr =  1.00E-02,  avg # of iterations =  4.1

     Threshold (ethr) on eigenvalues was too large:
     Diagonalizing with lowered threshold

     Davidson diagonalization with overlap
     ethr =  5.42E-04,  avg # of iterations =  1.8

     total cpu time spent up to now is        1.1 secs

     total energy              =    -213.05291903 Ry
     estimated scf accuracy    <       0.05958355 Ry

     iteration #  2     ecut=    40.00 Ry     beta= 0.70
     Davidson diagonalization with overlap
     ethr =  5.42E-04,  avg # of iterations =  2.0

     total cpu time spent up to now is        1.4 secs

     total energy              =    -213.05391334 Ry
     estimated scf accuracy    <       0.21293423 Ry

     iteration #  3     ecut=    40.00 Ry     beta= 0.70
     Davidson diagonalization with overlap
     ethr =  5.42E-04,  avg # of iterations =  2.0

     total cpu time spent up to now is        1.7 secs

     total energy              =    -213.08805458 Ry
     estimated scf accuracy    <       0.00008899 Ry

     iteration #  4     ecut=    40.00 Ry     beta= 0.70
     Davidson diagonalization with overlap
     ethr =  8.09E-07,  avg # of iterations =  3.4

     total cpu time spent up to now is        2.1 secs

     total energy              =    -213.08809394 Ry
     estimated scf accuracy    <       0.00002964 Ry

     iteration #  5     ecut=    40.00 Ry     beta= 0.70
     Davidson diagonalization with overlap
     ethr =  2.69E-07,  avg # of iterations =  1.4

     total cpu time spent up to now is        2.4 secs

     total energy              =    -213.08810076 Ry
     estimated scf accuracy    <       0.00000256 Ry

     iteration #  6     ecut=    40.00 Ry     beta= 0.70
     Davidson diagonalization with overlap
     ethr =  2.33E-08,  avg # of iterations =  1.3

     total cpu time spent up to now is        2.7 secs

     End of self-consistent calculation

          k = 0.0000 0.0000 0.0000 (   331 PWs)   bands (ev):

     3.3043   9.7390   9.7390   9.7390  10.5766  10.5766  35.6828  38.1093
    38.1093  38.1093

          k = 0.1179 0.1179-0.1179 (   332 PWs)   bands (ev):

     4.2955   9.5595   9.8797   9.8797  10.5500  10.5500  29.4444  36.0336
    36.3596  36.3596

          k = 0.2357 0.2357-0.2357 (   344 PWs)   bands (ev):

     6.6926   9.7104   9.8201   9.8201  10.8796  10.8796  21.3671  34.7980
    35.1339  35.1339

          k =-0.3536-0.3536 0.3536 (   344 PWs)   bands (ev):

     7.6373   9.7044   9.7044  11.1537  11.1537  11.6828  16.5174  34.0865
    34.8756  34.8756

          k = 0.2357 0.0000 0.0000 (   335 PWs)   bands (ev):

     4.6186   9.3686  10.0537  10.0537  10.2628  10.7139  32.5601  32.5601
    33.0467  34.7160

          k = 0.3536 0.1179-0.1179 (   335 PWs)   bands (ev):

     6.5894   9.1073   9.7889  10.1840  10.9027  10.9730  24.5606  30.6355
    31.6830  33.5108

          k =-0.2357-0.4714 0.4714 (   335 PWs)   bands (ev):

     8.0672   9.3207   9.8058  10.0336  11.1735  13.2163  17.7706  28.5465
    30.9139  33.1946

          k =-0.1179-0.3536 0.3536 (   336 PWs)   bands (ev):

     7.8830   9.4924   9.5632  10.0250  10.8036  12.4065  19.7556  27.0092
    33.5346  34.5145

          k = 0.0000-0.2357 0.2357 (   331 PWs)   bands (ev):

     5.8187   9.3073   9.8481  10.1694  10.2743  11.0559  27.0086  27.7118
    37.6202  38.0803

          k = 0.4714 0.0000 0.0000 (   335 PWs)   bands (ev):

     7.4099   8.6594  10.6547  10.8193  10.8193  10.9932  26.4318  27.7455
    27.7455  30.9931

          k =-0.1179-0.5893 0.5893 (   338 PWs)   bands (ev):

     8.1358   8.5761  10.2856  10.7674  11.2208  13.9484  21.7123  22.6318
    27.2656  31.8318

          k =-0.0000-0.4714 0.4714 (   347 PWs)   bands (ev):

     8.6896   8.8544   9.5964  10.5024  10.9522  15.9920  18.6721  21.2482
    29.4172  32.6755

          k =-0.7071 0.0000 0.0000 (   342 PWs)   bands (ev):

     7.8454   8.3196  11.1356  11.2988  11.2988  14.1966  19.8756  25.8552
    25.8552  30.3765

          k =-0.2357-0.4714 0.7071 (   334 PWs)   bands (ev):

     8.1691   8.9293   9.4513  10.6201  10.8185  12.6832  23.0226  24.0415
    27.5275  37.5622

          k =-0.1179-0.3536 0.5893 (   346 PWs)   bands (ev):

     8.8091   8.8425   9.4167  10.4289  11.1210  16.3009  17.5437  24.5143
    24.7608  37.8901

          k =-0.7071 0.2357 0.0000 (   344 PWs)   bands (ev):

     8.3662   8.7090   9.9296  10.7261  11.2993  16.7638  20.4197  21.4419
    22.7713  36.5190

     the Fermi energy is    12.7397 ev

!    total energy              =    -213.08810123 Ry
     total all-electron energy =     -3309.967867 Ry
     estimated scf accuracy    <          1.4E-09 Ry
     smearing contrib. (-TS)   =       0.00000130 Ry
     internal energy E=F+TS    =    -213.08810253 Ry

     The total energy is F=E-TS. E is the sum of the following terms:
     one-electron contribution =     -27.85645197 Ry
     hartree contribution      =      30.57547784 Ry
     xc contribution           =     -44.63577205 Ry
     ewald contribution        =     -81.32153670 Ry
     one-center paw contrib.   =     -89.84981965 Ry

     convergence has been achieved in   6 iterations

     Forces acting on atoms (cartesian axes, Ry/au):

     atom    1 type  1   force =     0.00000000    0.00000000    0.00000000

     Total force =     0.000000     Total SCF correction =     0.000000


     Computing stress (Cartesian axis) and pressure

          total   stress  (Ry/bohr**3)                   (kbar)     P=       27.75
   0.00018867   0.00000000   0.00000000           27.75        0.00        0.00
   0.00000000   0.00018867   0.00000000            0.00       27.75        0.00
   0.00000000   0.00000000   0.00018867            0.00        0.00       27.75


     Writing all to output data dir ./pwscf.save/ :
     XML data file, charge density, pseudopotentials, collected wavefunctions

     init_run     :      0.50s CPU      0.54s WALL (       1 calls)
     electrons    :      1.97s CPU      1.99s WALL (       1 calls)
     forces       :      0.04s CPU      0.04s WALL (       1 calls)
     stress       :      0.24s CPU      0.24s WALL (       1 calls)

     Called by init_run:
     wfcinit      :      0.03s CPU      0.03s WALL (       1 calls)
     potinit      :      0.19s CPU      0.22s WALL (       1 calls)
     hinit0       :      0.26s CPU      0.26s WALL (       1 calls)

     Called by electrons:
     c_bands      :      0.54s CPU      0.55s WALL (       7 calls)
     sum_band     :      0.22s CPU      0.23s WALL (       7 calls)
     v_of_rho     :      0.05s CPU      0.05s WALL (       7 calls)
     newd         :      0.13s CPU      0.14s WALL (       7 calls)
     PAW_pot      :      1.21s CPU      1.25s WALL (       7 calls)
     mix_rho      :      0.00s CPU      0.00s WALL (       7 calls)

     Called by c_bands:
     init_us_2    :      0.02s CPU      0.02s WALL (     272 calls)
     cegterg      :      0.52s CPU      0.53s WALL (     112 calls)

     Called by *egterg:
     cdiaghg      :      0.03s CPU      0.03s WALL (     351 calls)
     h_psi        :      0.41s CPU      0.42s WALL (     383 calls)
     s_psi        :      0.02s CPU      0.02s WALL (     383 calls)
     g_psi        :      0.00s CPU      0.00s WALL (     255 calls)

     Called by h_psi:
     h_psi:calbec :      0.03s CPU      0.03s WALL (     383 calls)
     vloc_psi     :      0.36s CPU      0.37s WALL (     383 calls)
                                        0.00s GPU  (     383 calls)
     add_vuspsi   :      0.02s CPU      0.02s WALL (     383 calls)

     General routines
     calbec       :      0.06s CPU      0.06s WALL (     767 calls)
     fft          :      0.03s CPU      0.03s WALL (     115 calls)
     ffts         :      0.00s CPU      0.00s WALL (      14 calls)
     fftw         :      0.40s CPU      0.40s WALL (    6904 calls)
     interpolate  :      0.00s CPU      0.00s WALL (       7 calls)

     Parallel routines

     PWSCF        :      2.88s CPU      2.96s WALL


   This run was terminated on:  16:11:26  15Mar2026            

=------------------------------------------------------------------------------=
   JOB DONE.
=------------------------------------------------------------------------------=
