
     Program PWSCF v.7.5 starts on 15Mar2026 at 15:52:11 

     This program is part of the open-source Quantum ESPRESSO suite
     for quantum simulation of materials; please cite
         "P. Giannozzi et al., J. Phys.:Condens. Matter 21 395502 (2009);
         "P. Giannozzi et al., J. Phys.:Condens. Matter 29 465901 (2017);
         "P. Giannozzi et al., J. Chem. Phys. 152 154105 (2020);
          URL http://www.quantum-espresso.org", 
     in publications or presentations arising from this work. More details at
     http://www.quantum-espresso.org/quote

     Parallel version (MPI), running on     1 processors

     MPI processes distributed on     1 nodes
     3456 MiB available memory on the printing compute node when the environment starts

     Reading input from espresso.pwi
Warning: card &CELL ignored
Warning: card &FCP ignored
Warning: card &RISM ignored

     Current dimensions of program PWSCF are:
     Max number of different atomic species (ntypx) = 10
     Max number of k-points (npk) =  40000
     Max angular momentum in pseudopotentials (lmaxx) =  4
     Message from routine setup:
     using ibrav=0 with symmetry is DISCOURAGED, use correct ibrav instead

     Subspace diagonalization in iterative solution of the eigenvalue problem:
     a serial algorithm will be used


     G-vector sticks info
     --------------------
     sticks:   dense  smooth     PW     G-vecs:    dense   smooth      PW
     Sum         685     349    121                12039     4279     869

     Using Slab Decomposition



     bravais-lattice index     =            0
     lattice parameter (alat)  =       5.5972  a.u.
     unit-cell volume          =     123.9954 (a.u.)^3
     number of atoms/cell      =            1
     number of atomic types    =            1
     number of electrons       =        11.00
     number of Kohn-Sham states=           10
     kinetic-energy cutoff     =      40.0000  Ry
     charge density cutoff     =     320.0000  Ry
     scf convergence threshold =      1.0E-06
     mixing beta               =       0.7000
     number of iterations used =            8  plain     mixing
     Exchange-correlation= LDA
                           (   1   1   0   0   0   0   0)

     celldm(1)=   5.597234  celldm(2)=   0.000000  celldm(3)=   0.000000
     celldm(4)=   0.000000  celldm(5)=   0.000000  celldm(6)=   0.000000

     crystal axes: (cart. coord. in units of alat)
               a(1) = (   0.000000   0.707107   0.707107 )  
               a(2) = (   0.707107   0.000000   0.707107 )  
               a(3) = (   0.707107   0.707107   0.000000 )  

     reciprocal axes: (cart. coord. in units 2 pi/alat)
               b(1) = ( -0.707107  0.707107  0.707107 )  
               b(2) = (  0.707107 -0.707107  0.707107 )  
               b(3) = (  0.707107  0.707107 -0.707107 )  


     PseudoPot. # 1 for Au read from file:
     /home/kenobi/Workspaces/PHYS400/pseudopotentials/Au.pz-rrkjus_aewfc.UPF
     MD5 check sum: a6a73ca633fd0b71782ee3cea1e65e2b
     Pseudo is Ultrasoft, Zval = 11.0
     Generated using "atomic" code by A. Dal Corso  (Quantum ESPRESSO distribution)
     Using radial grid of 1279 points,  3 beta functions with: 
                l(1) =   1
                l(2) =   2
                l(3) =   2
     Q(r) pseudized with 0 coefficients 


     atomic species   valence    mass     pseudopotential
     Au               11.00   196.96657     Au( 1.00)

     48 Sym. Ops., with inversion, found



   Cartesian axes

     site n.     atom                  positions (alat units)
         1        Au     tau(   1) = (   0.0000000   0.0000000   0.0000000  )

     number of k points=    16  Marzari-Vanderbilt smearing, width (Ry)=  0.0200
                       cart. coord. in units 2pi/alat
        k(    1) = (   0.0000000   0.0000000   0.0000000), wk =   0.0092593
        k(    2) = (   0.1178511   0.1178511  -0.1178511), wk =   0.0740741
        k(    3) = (   0.2357023   0.2357023  -0.2357023), wk =   0.0740741
        k(    4) = (  -0.3535534  -0.3535534   0.3535534), wk =   0.0370370
        k(    5) = (   0.2357023   0.0000000   0.0000000), wk =   0.0555556
        k(    6) = (   0.3535534   0.1178511  -0.1178511), wk =   0.2222222
        k(    7) = (  -0.2357023  -0.4714045   0.4714045), wk =   0.2222222
        k(    8) = (  -0.1178511  -0.3535534   0.3535534), wk =   0.2222222
        k(    9) = (   0.0000000  -0.2357023   0.2357023), wk =   0.1111111
        k(   10) = (   0.4714045   0.0000000   0.0000000), wk =   0.0555556
        k(   11) = (  -0.1178511  -0.5892557   0.5892557), wk =   0.2222222
        k(   12) = (  -0.0000000  -0.4714045   0.4714045), wk =   0.1111111
        k(   13) = (  -0.7071068   0.0000000   0.0000000), wk =   0.0277778
        k(   14) = (  -0.2357023  -0.4714045   0.7071068), wk =   0.2222222
        k(   15) = (  -0.1178511  -0.3535534   0.5892557), wk =   0.2222222
        k(   16) = (  -0.7071068   0.2357023   0.0000000), wk =   0.1111111

     Dense  grid:    12039 G-vectors     FFT dimensions: (  32,  32,  32)

     Smooth grid:     4279 G-vectors     FFT dimensions: (  24,  24,  24)

     Estimated max dynamical RAM per process >      31.31 MB

     Initial potential from superposition of free atoms

     starting charge      10.9999, renormalised to      11.0000
     Starting wfcs are    9 randomized atomic wfcs +    1 random wfcs

     total cpu time spent up to now is        0.4 secs

     Self-consistent Calculation

     iteration #  1     ecut=    40.00 Ry     beta= 0.70
     Davidson diagonalization with overlap
     ethr =  1.00E-02,  avg # of iterations =  6.1

     Threshold (ethr) on eigenvalues was too large:
     Diagonalizing with lowered threshold

     Davidson diagonalization with overlap
     ethr =  6.84E-04,  avg # of iterations =  1.0

     total cpu time spent up to now is        0.7 secs

     total energy              =     -66.80757120 Ry
     estimated scf accuracy    <       0.07676040 Ry

     iteration #  2     ecut=    40.00 Ry     beta= 0.70
     Davidson diagonalization with overlap
     ethr =  6.98E-04,  avg # of iterations =  2.2

     total cpu time spent up to now is        0.9 secs

     total energy              =     -66.82996798 Ry
     estimated scf accuracy    <       0.02917491 Ry

     iteration #  3     ecut=    40.00 Ry     beta= 0.70
     Davidson diagonalization with overlap
     ethr =  2.65E-04,  avg # of iterations =  1.8

     total cpu time spent up to now is        1.0 secs

     total energy              =     -66.83590048 Ry
     estimated scf accuracy    <       0.00003264 Ry

     iteration #  4     ecut=    40.00 Ry     beta= 0.70
     Davidson diagonalization with overlap
     ethr =  2.97E-07,  avg # of iterations =  3.5

     total cpu time spent up to now is        1.2 secs

     total energy              =     -66.83591966 Ry
     estimated scf accuracy    <       0.00000148 Ry

     iteration #  5     ecut=    40.00 Ry     beta= 0.70
     Davidson diagonalization with overlap
     ethr =  1.35E-08,  avg # of iterations =  1.2

     total cpu time spent up to now is        1.4 secs

     End of self-consistent calculation

          k = 0.0000 0.0000 0.0000 (   531 PWs)   bands (ev):

     4.7323   9.6041   9.6041   9.6041  10.9340  10.9340  30.1790  33.1523
    33.1523  33.1523

          k = 0.1179 0.1179-0.1179 (   540 PWs)   bands (ev):

     5.5937   9.4227   9.8250   9.8250  10.8974  10.8974  27.9924  30.9644
    33.3902  33.3902

          k = 0.2357 0.2357-0.2357 (   528 PWs)   bands (ev):

     7.0449   9.7428   9.7428  10.3107  11.4881  11.4881  21.3266  30.0835
    32.2309  32.2309

          k =-0.3536-0.3536 0.3536 (   544 PWs)   bands (ev):

     7.2227   9.5743   9.5743  11.9954  11.9954  13.2845  16.5161  29.2890
    31.0429  31.0429

          k = 0.2357 0.0000 0.0000 (   532 PWs)   bands (ev):

     5.8923   9.0944  10.1169  10.1169  10.4276  11.1754  30.6130  30.6130
    30.7060  30.9817

          k = 0.3536 0.1179-0.1179 (   529 PWs)   bands (ev):

     7.3485   8.9217   9.7327  10.3269  11.4956  11.6533  23.9299  28.9187
    30.0210  30.9040

          k =-0.2357-0.4714 0.4714 (   532 PWs)   bands (ev):

     7.7867   9.2697  10.0902  10.2301  12.0328  14.5264  17.7254  27.2771
    28.8666  30.2444

          k =-0.1179-0.3536 0.3536 (   530 PWs)   bands (ev):

     7.8547   9.3777  10.0322  10.0712  11.3544  13.5311  19.8123  26.1209
    30.6135  31.3311

          k = 0.0000-0.2357 0.2357 (   537 PWs)   bands (ev):

     6.8493   9.1170   9.8549  10.2757  10.4564  11.7545  25.6432  27.3536
    32.7527  33.8381

          k = 0.4714 0.0000 0.0000 (   540 PWs)   bands (ev):

     7.6558   8.1906  11.1570  11.4066  11.4066  11.6828  25.2093  26.1255
    26.1255  29.9940

          k =-0.1179-0.5893 0.5893 (   528 PWs)   bands (ev):

     7.8748   8.2688  10.7528  11.3007  12.1245  14.9578  20.1502  23.1736
    25.5478  31.0519

          k =-0.0000-0.4714 0.4714 (   528 PWs)   bands (ev):

     8.3066   9.0516   9.8128  10.8590  11.6215  16.1565  20.0417  20.6108
    27.7919  30.9185

          k =-0.7071 0.0000 0.0000 (   524 PWs)   bands (ev):

     7.5000   7.7842  11.9505  12.2799  12.2799  15.1488  18.9533  23.9892
    23.9892  30.2199

          k =-0.2357-0.4714 0.7071 (   535 PWs)   bands (ev):

     8.4542   8.6866   9.3460  11.0991  11.3965  13.7311  22.0771  23.7518
    26.9916  34.0104

          k =-0.1179-0.3536 0.5893 (   524 PWs)   bands (ev):

     8.6592   8.7709   9.5744  10.7376  11.9267  16.8854  17.9081  23.2274
    25.2337  33.6391

          k =-0.7071 0.2357 0.0000 (   518 PWs)   bands (ev):

     8.1763   8.4256  10.2783  11.1980  12.2810  17.9881  18.3506  21.9073
    23.0848  34.6517

     the Fermi energy is    13.8022 ev

!    total energy              =     -66.83591972 Ry
     estimated scf accuracy    <       0.00000007 Ry
     smearing contrib. (-TS)   =      -0.00009239 Ry
     internal energy E=F+TS    =     -66.83582733 Ry

     The total energy is F=E-TS. E is the sum of the following terms:
     one-electron contribution =       5.57860440 Ry
     hartree contribution      =       8.04742257 Ry
     xc contribution           =     -10.37716477 Ry
     ewald contribution        =     -70.08468953 Ry

     convergence has been achieved in   5 iterations

     Forces acting on atoms (cartesian axes, Ry/au):

     atom    1 type  1   force =     0.00000000    0.00000000    0.00000000

     Total force =     0.000000     Total SCF correction =     0.000000


     Computing stress (Cartesian axis) and pressure

          total   stress  (Ry/bohr**3)                   (kbar)     P=     -132.43
  -0.00090023   0.00000000  -0.00000000         -132.43        0.00       -0.00
   0.00000000  -0.00090023   0.00000000            0.00     -132.43        0.00
  -0.00000000   0.00000000  -0.00090023           -0.00        0.00     -132.43


     Writing all to output data dir ./pwscf.save/ :
     XML data file, charge density, pseudopotentials, collected wavefunctions

     init_run     :      0.27s CPU      0.29s WALL (       1 calls)
     electrons    :      0.99s CPU      1.00s WALL (       1 calls)
     forces       :      0.04s CPU      0.04s WALL (       1 calls)
     stress       :      0.24s CPU      0.24s WALL (       1 calls)

     Called by init_run:
     wfcinit      :      0.04s CPU      0.04s WALL (       1 calls)
     potinit      :      0.02s CPU      0.02s WALL (       1 calls)
     hinit0       :      0.19s CPU      0.19s WALL (       1 calls)

     Called by electrons:
     c_bands      :      0.66s CPU      0.66s WALL (       6 calls)
     sum_band     :      0.21s CPU      0.22s WALL (       6 calls)
     v_of_rho     :      0.01s CPU      0.01s WALL (       6 calls)
     newd         :      0.12s CPU      0.13s WALL (       6 calls)
     mix_rho      :      0.00s CPU      0.00s WALL (       6 calls)

     Called by c_bands:
     init_us_2    :      0.02s CPU      0.02s WALL (     240 calls)
     cegterg      :      0.63s CPU      0.64s WALL (      96 calls)

     Called by *egterg:
     cdiaghg      :      0.03s CPU      0.03s WALL (     334 calls)
     h_psi        :      0.50s CPU      0.51s WALL (     366 calls)
     s_psi        :      0.02s CPU      0.02s WALL (     366 calls)
     g_psi        :      0.00s CPU      0.00s WALL (     254 calls)

     Called by h_psi:
     h_psi:calbec :      0.03s CPU      0.03s WALL (     366 calls)
     vloc_psi     :      0.46s CPU      0.47s WALL (     366 calls)
                                        0.00s GPU  (     366 calls)
     add_vuspsi   :      0.02s CPU      0.02s WALL (     366 calls)

     General routines
     calbec       :      0.06s CPU      0.06s WALL (     734 calls)
     fft          :      0.01s CPU      0.01s WALL (      40 calls)
     ffts         :      0.00s CPU      0.00s WALL (      12 calls)
     fftw         :      0.49s CPU      0.49s WALL (    5950 calls)
     interpolate  :      0.00s CPU      0.00s WALL (       6 calls)

     Parallel routines

     PWSCF        :      1.60s CPU      1.64s WALL


   This run was terminated on:  15:52:13  15Mar2026            

=------------------------------------------------------------------------------=
   JOB DONE.
=------------------------------------------------------------------------------=
