
     Program PWSCF v.7.5 starts on 15Mar2026 at 16: 9:59 

     This program is part of the open-source Quantum ESPRESSO suite
     for quantum simulation of materials; please cite
         "P. Giannozzi et al., J. Phys.:Condens. Matter 21 395502 (2009);
         "P. Giannozzi et al., J. Phys.:Condens. Matter 29 465901 (2017);
         "P. Giannozzi et al., J. Chem. Phys. 152 154105 (2020);
          URL http://www.quantum-espresso.org", 
     in publications or presentations arising from this work. More details at
     http://www.quantum-espresso.org/quote

     Parallel version (MPI), running on     1 processors

     MPI processes distributed on     1 nodes
     1469 MiB available memory on the printing compute node when the environment starts

     Reading input from espresso.pwi
Warning: card &CELL ignored
Warning: card &FCP ignored
Warning: card &RISM ignored

     Current dimensions of program PWSCF are:
     Max number of different atomic species (ntypx) = 10
     Max number of k-points (npk) =  40000
     Max angular momentum in pseudopotentials (lmaxx) =  4
     file Al.pbe-n-kjpaw_psl.1.0.0.UPF: wavefunction(s)  3S 3P renormalized
     Message from routine setup:
     using ibrav=0 with symmetry is DISCOURAGED, use correct ibrav instead

     Subspace diagonalization in iterative solution of the eigenvalue problem:
     a serial algorithm will be used


     G-vector sticks info
     --------------------
     sticks:   dense  smooth     PW     G-vecs:    dense   smooth      PW
     Sum         691     349    121                12051     4285     869

     Using Slab Decomposition



     bravais-lattice index     =            0
     lattice parameter (alat)  =       5.6282  a.u.
     unit-cell volume          =     126.0671 (a.u.)^3
     number of atoms/cell      =            1
     number of atomic types    =            1
     number of electrons       =         3.00
     number of Kohn-Sham states=            6
     kinetic-energy cutoff     =      40.0000  Ry
     charge density cutoff     =     320.0000  Ry
     scf convergence threshold =      1.0E-06
     mixing beta               =       0.7000
     number of iterations used =            8  plain     mixing
     Exchange-correlation= SLA  PW   PBX  PBC
                           (   1   4   3   4   0   0   0)

     celldm(1)=   5.628235  celldm(2)=   0.000000  celldm(3)=   0.000000
     celldm(4)=   0.000000  celldm(5)=   0.000000  celldm(6)=   0.000000

     crystal axes: (cart. coord. in units of alat)
               a(1) = (   0.000000   0.707107   0.707107 )  
               a(2) = (   0.707107   0.000000   0.707107 )  
               a(3) = (   0.707107   0.707107   0.000000 )  

     reciprocal axes: (cart. coord. in units 2 pi/alat)
               b(1) = ( -0.707107  0.707107  0.707107 )  
               b(2) = (  0.707107 -0.707107  0.707107 )  
               b(3) = (  0.707107  0.707107 -0.707107 )  


     PseudoPot. # 1 for Al read from file:
     /home/kenobi/Workspaces/PHYS400/pseudopotentials/Al.pbe-n-kjpaw_psl.1.0.0.UPF
     MD5 check sum: 502b6b27b9c6270cab5dd1084b96fa6d
     Pseudo is Projector augmented-wave + core cor, Zval =  3.0
     Generated using &quot;atomic&quot; code by A. Dal Corso  v.6.3
     Shape of augmentation charge: PSQ
     Using radial grid of 1135 points,  6 beta functions with: 
                l(1) =   0
                l(2) =   0
                l(3) =   1
                l(4) =   1
                l(5) =   2
                l(6) =   2
     Q(r) pseudized with 0 coefficients 


     atomic species   valence    mass     pseudopotential
     Al                3.00    26.98154     Al( 1.00)

     48 Sym. Ops., with inversion, found



   Cartesian axes

     site n.     atom                  positions (alat units)
         1        Al     tau(   1) = (   0.0000000   0.0000000   0.0000000  )

     number of k points=    16  Marzari-Vanderbilt smearing, width (Ry)=  0.0200
                       cart. coord. in units 2pi/alat
        k(    1) = (   0.0000000   0.0000000   0.0000000), wk =   0.0092593
        k(    2) = (   0.1178511   0.1178511  -0.1178511), wk =   0.0740741
        k(    3) = (   0.2357023   0.2357023  -0.2357023), wk =   0.0740741
        k(    4) = (  -0.3535534  -0.3535534   0.3535534), wk =   0.0370370
        k(    5) = (   0.2357023   0.0000000   0.0000000), wk =   0.0555556
        k(    6) = (   0.3535534   0.1178511  -0.1178511), wk =   0.2222222
        k(    7) = (  -0.2357023  -0.4714045   0.4714045), wk =   0.2222222
        k(    8) = (  -0.1178511  -0.3535534   0.3535534), wk =   0.2222222
        k(    9) = (   0.0000000  -0.2357023   0.2357023), wk =   0.1111111
        k(   10) = (   0.4714045   0.0000000   0.0000000), wk =   0.0555556
        k(   11) = (  -0.1178511  -0.5892557   0.5892557), wk =   0.2222222
        k(   12) = (  -0.0000000  -0.4714045   0.4714045), wk =   0.1111111
        k(   13) = (  -0.7071068   0.0000000   0.0000000), wk =   0.0277778
        k(   14) = (  -0.2357023  -0.4714045   0.7071068), wk =   0.2222222
        k(   15) = (  -0.1178511  -0.3535534   0.5892557), wk =   0.2222222
        k(   16) = (  -0.7071068   0.2357023   0.0000000), wk =   0.1111111

     Dense  grid:    12051 G-vectors     FFT dimensions: (  36,  36,  36)

     Smooth grid:     4285 G-vectors     FFT dimensions: (  24,  24,  24)

     Estimated max dynamical RAM per process >      47.54 MB

     Initial potential from superposition of free atoms

     starting charge       2.9977, renormalised to       3.0000
     Starting wfcs are    4 randomized atomic wfcs +    2 random wfcs
     Checking if some PAW data can be deallocated... 

     total cpu time spent up to now is        0.7 secs

     Self-consistent Calculation

     iteration #  1     ecut=    40.00 Ry     beta= 0.70
     Davidson diagonalization with overlap
     ethr =  1.00E-02,  avg # of iterations =  5.9

     Threshold (ethr) on eigenvalues was too large:
     Diagonalizing with lowered threshold

     Davidson diagonalization with overlap
     ethr =  1.79E-04,  avg # of iterations =  3.2

     total cpu time spent up to now is        1.2 secs

     total energy              =     -39.50406223 Ry
     estimated scf accuracy    <       0.00525953 Ry

     iteration #  2     ecut=    40.00 Ry     beta= 0.70
     Davidson diagonalization with overlap
     ethr =  1.75E-04,  avg # of iterations =  1.0

     total cpu time spent up to now is        1.5 secs

     total energy              =     -39.50403618 Ry
     estimated scf accuracy    <       0.00035580 Ry

     iteration #  3     ecut=    40.00 Ry     beta= 0.70
     Davidson diagonalization with overlap
     ethr =  1.19E-05,  avg # of iterations =  2.9

     total cpu time spent up to now is        1.8 secs

     End of self-consistent calculation

          k = 0.0000 0.0000 0.0000 (   537 PWs)   bands (ev):

    -3.6264  18.6246  18.6248  19.2345  19.2345  19.2346

          k = 0.1179 0.1179-0.1179 (   540 PWs)   bands (ev):

    -2.9323  12.8489  17.1333  17.1333  20.0882  21.2576

          k = 0.2357 0.2357-0.2357 (   531 PWs)   bands (ev):

    -0.8685   7.1355  16.5330  16.5330  19.0564  19.0566

          k =-0.3536-0.3536 0.3536 (   544 PWs)   bands (ev):

     2.4580   2.5710  16.8379  16.8379  17.5794  17.5794

          k = 0.2357 0.0000 0.0000 (   548 PWs)   bands (ev):

    -2.7016  14.9440  14.9443  15.4939  17.3842  18.5212

          k = 0.3536 0.1179-0.1179 (   537 PWs)   bands (ev):

    -1.0962   9.4754  13.9450  14.6687  15.5877  19.9496

          k =-0.2357-0.4714 0.4714 (   540 PWs)   bands (ev):

     1.8413   4.5089  12.3850  14.1487  15.8817  21.4640

          k =-0.1179-0.3536 0.3536 (   541 PWs)   bands (ev):

     0.7187   6.0308  11.3392  15.5424  17.4158  20.5031

          k = 0.0000-0.2357 0.2357 (   537 PWs)   bands (ev):

    -1.7823  10.9394  11.9801  18.0125  20.0633  20.4192

          k = 0.4714 0.0000 0.0000 (   540 PWs)   bands (ev):

     0.0398  10.7096  12.5363  12.5363  12.8144  15.5112

          k =-0.1179-0.5893 0.5893 (   536 PWs)   bands (ev):

     2.5001   7.7483   7.9209  12.3368  13.8698  18.4630

          k =-0.0000-0.4714 0.4714 (   528 PWs)   bands (ev):

     3.6233   5.7757   6.8759  13.3432  15.0703  23.8607

          k =-0.7071 0.0000 0.0000 (   524 PWs)   bands (ev):

     4.0555   5.0726  11.7330  11.7330  11.9021  14.6785

          k =-0.2357-0.4714 0.7071 (   535 PWs)   bands (ev):

     0.9432   8.3608   9.4750  11.5514  18.6658  19.7752

          k =-0.1179-0.3536 0.5893 (   534 PWs)   bands (ev):

     4.2592   4.2876   9.6203   9.6678  19.5391  20.1779

          k =-0.7071 0.2357 0.0000 (   534 PWs)   bands (ev):

     4.9152   5.9797   7.5000   8.6138  17.8363  19.1464

     the Fermi energy is     6.8725 ev

!    total energy              =     -39.50404611 Ry
     total all-electron energy =      -485.646826 Ry
     estimated scf accuracy    <       0.00000049 Ry
     smearing contrib. (-TS)   =      -0.00042323 Ry
     internal energy E=F+TS    =     -39.50362288 Ry

     The total energy is F=E-TS. E is the sum of the following terms:
     one-electron contribution =       2.87269879 Ry
     hartree contribution      =       0.00588550 Ry
     xc contribution           =      -2.52695076 Ry
     ewald contribution        =      -5.18419770 Ry
     one-center paw contrib.   =     -34.67105871 Ry

     convergence has been achieved in   3 iterations

     Forces acting on atoms (cartesian axes, Ry/au):

     atom    1 type  1   force =     0.00000000    0.00000000    0.00000000

     Total force =     0.000000     Total SCF correction =     0.000000


     Computing stress (Cartesian axis) and pressure

          total   stress  (Ry/bohr**3)                   (kbar)     P=      -71.26
  -0.00048442  -0.00000000   0.00000000          -71.26       -0.00        0.00
  -0.00000000  -0.00048442   0.00000000           -0.00      -71.26        0.00
   0.00000000   0.00000000  -0.00048442            0.00        0.00      -71.26


     Writing all to output data dir ./pwscf.save/ :
     XML data file, charge density, pseudopotentials, collected wavefunctions

     init_run     :      0.50s CPU      0.54s WALL (       1 calls)
     electrons    :      1.10s CPU      1.12s WALL (       1 calls)
     forces       :      0.07s CPU      0.07s WALL (       1 calls)
     stress       :      0.37s CPU      0.37s WALL (       1 calls)

     Called by init_run:
     wfcinit      :      0.03s CPU      0.03s WALL (       1 calls)
     potinit      :      0.20s CPU      0.22s WALL (       1 calls)
     hinit0       :      0.24s CPU      0.24s WALL (       1 calls)

     Called by electrons:
     c_bands      :      0.31s CPU      0.31s WALL (       4 calls)
     sum_band     :      0.16s CPU      0.17s WALL (       4 calls)
     v_of_rho     :      0.06s CPU      0.06s WALL (       4 calls)
     newd         :      0.12s CPU      0.13s WALL (       4 calls)
     PAW_pot      :      0.66s CPU      0.67s WALL (       4 calls)
     mix_rho      :      0.00s CPU      0.00s WALL (       4 calls)

     Called by c_bands:
     init_us_2    :      0.02s CPU      0.02s WALL (     176 calls)
     cegterg      :      0.29s CPU      0.29s WALL (      64 calls)

     Called by *egterg:
     cdiaghg      :      0.01s CPU      0.01s WALL (     257 calls)
     h_psi        :      0.25s CPU      0.25s WALL (     289 calls)
     s_psi        :      0.01s CPU      0.01s WALL (     289 calls)
     g_psi        :      0.00s CPU      0.00s WALL (     209 calls)

     Called by h_psi:
     h_psi:calbec :      0.02s CPU      0.02s WALL (     289 calls)
     vloc_psi     :      0.22s CPU      0.22s WALL (     289 calls)
                                        0.00s GPU  (     289 calls)
     add_vuspsi   :      0.01s CPU      0.01s WALL (     289 calls)

     General routines
     calbec       :      0.05s CPU      0.05s WALL (     625 calls)
     fft          :      0.03s CPU      0.04s WALL (      76 calls)
     ffts         :      0.00s CPU      0.00s WALL (       8 calls)
     fftw         :      0.23s CPU      0.23s WALL (    2738 calls)
     interpolate  :      0.00s CPU      0.00s WALL (       4 calls)

     Parallel routines

     PWSCF        :      2.16s CPU      2.22s WALL


   This run was terminated on:  16:10: 1  15Mar2026            

=------------------------------------------------------------------------------=
   JOB DONE.
=------------------------------------------------------------------------------=
