ITEM: TIMESTEP
50
ITEM: NUMBER OF ATOMS
500
ITEM: BOX BOUNDS pp pp pp
0.0000000000000000e+00 1.8050000000000001e+01
0.0000000000000000e+00 1.8050000000000001e+01
0.0000000000000000e+00 1.8050000000000001e+01
ITEM: ATOMS id type x y z
1 1 0.00904279 0.0297107 0.0553419
3 1 1.79512 0.080379 1.79154
4 1 0.00447901 1.78883 1.73771
8 1 3.55837 1.75835 1.69431
21 1 0.0156634 3.59961 0.0635979
23 1 1.77216 3.56576 1.75962
102 1 1.77726 1.79327 3.53576
121 1 0.122124 3.5286 3.57769
106 1 5.38852 1.8283 3.55038
129 1 7.17871 3.55347 3.55046
27 1 5.465 3.58577 1.82189
12 1 7.34014 1.75636 1.88814
11 1 9.12139 0.07258 1.87749
16 1 10.8338 1.8808 1.86303
14 1 12.6482 1.67898 0.0907452
20 1 14.3643 1.90313 1.87644
101 1 17.981 0.106556 3.5261
117 1 14.4979 0.10718 3.60812
19 1 16.2672 0.104006 1.88436
118 1 16.2516 1.93431 3.59167
125 1 3.60619 3.63767 3.57262
22 1 1.84511 5.35897 0.0713934
28 1 3.52641 5.36968 1.8914
43 1 1.76036 7.21289 1.71421
145 1 3.61993 7.16595 3.60841
26 1 5.32081 5.3505 0.105151
32 1 7.19847 5.34127 1.79259
31 1 9.00531 3.6199 1.75157
133 1 10.7875 3.68013 3.54462
149 1 7.21933 7.15977 3.5496
30 1 8.97015 5.39284 0.0446069
36 1 10.7716 5.48278 1.72897
35 1 12.6043 3.6851 1.83797
53 1 10.8785 7.19926 0.0747228
34 1 12.6148 5.47752 0.0466123
40 1 14.3631 5.50052 1.78086
134 1 12.5203 5.49246 3.60015
39 1 16.1485 3.66222 1.81662
24 1 18.0187 5.3863 1.88217
59 1 16.3326 7.19558 1.90872
138 1 16.2923 5.37388 3.57061
45 1 3.52509 7.30628 0.0836235
42 1 1.76557 9.09277 0.0208488
44 1 0.0167468 8.94593 1.82325
48 1 3.55661 9.03287 1.9057
63 1 1.73213 10.776 1.84733
142 1 1.9243 9.0378 3.58214
47 1 5.35205 7.30134 1.70697
65 1 3.68264 10.7593 0.0670694
52 1 7.14534 9.09522 1.75856
67 1 5.42198 10.7591 1.74536
146 1 5.42342 8.943 3.56958
49 1 7.33285 7.3128 0.101867
51 1 9.00781 7.31057 1.85411
69 1 7.25849 10.7435 0.0270368
169 1 7.31891 10.7193 3.56768
50 1 9.15332 9.0397 0.100397
71 1 9.01377 10.7771 1.81159
150 1 9.03134 8.9196 3.5964
55 1 12.7698 7.3315 1.90118
56 1 10.9324 8.9144 1.89694
54 1 12.6149 9.10258 0.046966
75 1 12.5383 10.7662 1.82025
177 1 14.3589 10.7723 3.53314
60 1 14.5775 8.98201 1.7579
58 1 16.3183 9.12474 0.0820601
79 1 16.3345 10.825 1.81748
161 1 0.0747433 10.8932 3.61251
62 1 1.76694 12.6884 0.103812
83 1 1.81705 14.4142 1.8291
181 1 0.070172 14.3473 3.50364
68 1 3.63986 12.5403 1.84592
66 1 5.4297 12.6114 0.0299585
87 1 5.45675 14.3628 1.7338
166 1 5.40201 12.5283 3.57144
189 1 7.13146 14.4228 3.51981
173 1 10.781 10.8908 3.47898
72 1 7.25877 12.6505 1.88234
76 1 10.7543 12.7181 1.72851
74 1 12.5354 12.5145 0.0887081
80 1 14.3758 12.5509 1.67768
95 1 12.7526 14.4153 1.7623
174 1 12.6579 12.5867 3.48449
64 1 18.0348 12.5554 1.86682
78 1 16.2809 12.7441 0.0646019
178 1 16.1198 12.6074 3.50583
105 1 3.58149 18.0112 3.56641
185 1 3.60211 14.5177 3.54786
88 1 3.50827 16.3194 1.79424
7 1 5.40367 18.0029 1.8149
85 1 3.6514 14.4731 0.0356871
86 1 5.37578 16.324 0.0700658
89 1 7.2436 14.5684 0.0353212
91 1 9.0998 14.5687 1.80056
93 1 10.8264 14.4717 0.0538155
193 1 10.8434 14.4843 3.58914
92 1 7.31545 16.2719 1.71993
113 1 10.8506 17.9558 3.59207
96 1 10.8522 16.2532 1.873
15 1 12.5712 18.0112 1.83991
94 1 12.6857 16.2922 0.0260549
84 1 18.0402 16.2671 1.7297
99 1 16.1606 14.4684 1.78651
100 1 14.5438 16.2785 1.78223
103 1 1.73812 0.0582801 5.35979
108 1 3.57459 1.78508 5.32677
123 1 1.86034 3.56338 5.33468
201 1 0.0940873 0.0739692 7.19325
127 1 5.45428 3.58265 5.49346
206 1 5.34855 1.74044 7.14194
112 1 7.22414 1.67694 5.34308
110 1 9.14436 1.84296 3.66413
233 1 10.7635 3.51754 7.17904
131 1 8.88858 3.59989 5.32315
209 1 7.23477 0.00533383 7.11321
114 1 12.6461 1.83834 3.71593
116 1 10.8255 1.89694 5.38426
214 1 12.5459 1.85525 7.16829
104 1 17.9909 1.82104 5.49486
120 1 14.5134 1.75949 5.41658
139 1 16.2823 3.55852 5.33454
122 1 1.70499 5.49298 3.67484
225 1 3.5161 3.65028 7.1811
128 1 3.55483 5.35059 5.43023
143 1 1.78559 7.18834 5.40169
222 1 1.69594 5.42839 7.11991
126 1 5.4935 5.49904 3.66342
147 1 5.43299 7.1756 5.50071
130 1 8.94666 5.38162 3.66605
132 1 7.26035 5.44304 5.46554
136 1 10.7817 5.34339 5.4447
230 1 9.01358 5.36131 7.17466
135 1 12.6207 3.69111 5.32298
140 1 14.4354 5.49271 5.40923
155 1 12.554 7.14109 5.38654
234 1 12.5949 5.41455 7.1858
221 1 18.0499 3.62376 7.17288
137 1 14.4756 3.73221 3.70083
157 1 14.4853 7.16327 3.69526
124 1 17.938 5.32402 5.30974
159 1 16.3155 7.15691 5.32163
238 1 16.2252 5.38953 7.17261
141 1 0.082624 7.34078 3.6287
241 1 0.020592 7.23234 7.14277
163 1 1.88897 10.713 5.47282
261 1 0.0517235 10.8232 7.12311
148 1 3.68112 9.06196 5.46704
152 1 7.17107 8.93517 5.44295
167 1 5.39336 10.7943 5.36031
151 1 8.96931 7.26606 5.39835
253 1 10.7844 7.26875 7.11561
156 1 10.8072 9.03035 5.36023
171 1 9.08865 10.7132 5.38377
273 1 10.7735 10.7173 7.13771
153 1 10.8699 7.26998 3.61827
154 1 12.7503 9.06934 3.63138
160 1 14.3471 8.94966 5.46685
254 1 12.5889 8.91059 7.18537
277 1 14.3607 10.7198 7.14052
158 1 16.1373 9.12322 3.70319
144 1 18.0375 8.96403 5.3314
179 1 16.3066 10.8312 5.34451
258 1 16.2644 9.00778 7.10101
162 1 1.91591 12.5963 3.66271
183 1 1.8811 14.3555 5.44097
262 1 1.76803 12.6749 7.20659
165 1 3.65804 10.8864 3.67521
168 1 3.6614 12.6101 5.52437
187 1 5.40061 14.3166 5.39689
266 1 5.48837 12.5704 7.18776
170 1 8.9874 12.7315 3.69631
172 1 7.30032 12.6315 5.46481
191 1 9.03868 14.4069 5.51133
270 1 8.94974 12.5591 7.15826
175 1 12.5436 10.8688 5.30473
176 1 10.8478 12.5619 5.40225
195 1 12.7067 14.3261 5.47034
164 1 17.9644 12.624 5.46982
180 1 14.4828 12.5886 5.37179
182 1 1.72856 16.3265 3.6277
188 1 3.50776 16.1755 5.36806
281 1 0.00842113 14.4854 7.18702
109 1 7.17584 18.0099 3.66946
186 1 5.38347 16.2573 3.62395
107 1 5.3061 17.9415 5.4633
192 1 7.14428 16.1957 5.48497
286 1 5.42478 16.1943 7.19208
190 1 9.08275 16.2408 3.7174
111 1 9.11095 17.9764 5.33957
213 1 10.758 18.0564 7.18665
289 1 7.2428 14.5177 7.19389
196 1 10.8622 16.2877 5.51259
194 1 12.7473 16.2016 3.65376
115 1 12.5873 18.0556 5.44436
217 1 14.3583 17.993 7.22572
200 1 14.4329 16.3322 5.38969
294 1 12.682 16.1461 7.15167
197 1 14.4462 14.4377 3.61277
198 1 16.2554 16.2558 3.62742
119 1 16.363 17.9609 5.41776
199 1 16.2124 14.4937 5.30895
184 1 18.0228 16.1508 5.42803
298 1 16.2765 16.1512 7.18999
202 1 1.81815 1.85087 7.24549
205 1 3.52603 0.0423129 7.29259
203 1 1.83282 0.0589002 9.13037
204 1 0.0539239 1.77811 8.99284
208 1 3.53629 1.85587 9.10256
302 1 1.72832 1.86154 10.7667
229 1 7.20636 3.50073 7.24445
210 1 8.97215 1.84904 7.29984
212 1 7.26815 1.81181 9.04729
309 1 7.27593 0.0252125 10.7629
211 1 8.98811 0.0330306 8.9467
333 1 10.8249 3.5336 10.7293
216 1 10.8937 1.75988 9.02444
220 1 14.3946 1.78022 9.10548
235 1 12.7136 3.60002 9.02001
218 1 16.3186 1.74812 7.2343
237 1 14.4844 3.47756 7.28002
219 1 16.1744 0.0550034 9.05468
318 1 16.3378 1.7316 10.7854
223 1 1.84052 3.68502 9.10174
224 1 0.0828332 5.48393 9.08445
322 1 1.84396 5.51943 10.7996
249 1 7.18283 7.11826 7.23421
226 1 5.31556 5.39577 7.22411
227 1 5.33291 3.6329 8.94335
329 1 7.17245 3.75762 10.7825
228 1 3.65005 5.41018 9.02834
232 1 7.14205 5.50341 9.0512
247 1 5.36971 7.14027 9.10851
231 1 9.00385 3.72807 9.0544
236 1 10.7562 5.3694 8.99061
337 1 14.3828 3.61525 10.7691
239 1 16.3759 3.6717 9.07029
240 1 14.4892 5.42724 8.98287
259 1 16.2224 7.19149 9.0235
265 1 3.55728 10.7784 7.24936
245 1 3.49103 7.27035 7.22359
242 1 1.70687 9.10216 7.31519
243 1 1.70034 7.2893 8.95785
248 1 3.48875 8.91536 9.08077
365 1 3.53884 10.8165 10.7319
246 1 5.34036 9.0029 7.29462
267 1 5.43569 10.7566 9.001
346 1 5.33755 9.09033 10.74
269 1 7.30405 10.7066 7.26083
250 1 9.09443 9.02473 7.2637
251 1 9.04708 7.28396 8.95868
252 1 7.25536 8.89878 9.10498
256 1 10.756 9.06509 9.09114
255 1 12.5276 7.21571 9.04826
275 1 12.7008 10.7493 8.9977
257 1 14.4744 7.3065 7.28651
244 1 17.909 8.94586 8.96444
361 1 18.0194 10.7276 10.7533
260 1 14.5411 8.99408 9.07477
358 1 16.2774 9.03722 10.8054
263 1 1.72631 10.876 8.96232
264 1 0.0627881 12.6122 9.05446
381 1 0.0812815 14.3621 10.799
385 1 3.57336 14.3573 10.8305
285 1 3.61982 14.3662 7.23539
268 1 3.62975 12.638 9.07377
272 1 7.19085 12.6436 8.99356
366 1 5.49977 12.5605 10.7874
293 1 10.7694 14.37 7.30076
271 1 8.99556 10.8584 9.08226
389 1 7.2989 14.3693 10.8061
370 1 9.13277 12.6801 10.8232
274 1 12.5536 12.6364 7.23092
297 1 14.3832 14.3505 7.22451
373 1 10.9267 10.8926 10.7266
377 1 14.3342 10.9038 10.8046
276 1 10.8972 12.5426 8.9022
280 1 14.3304 12.7216 9.00346
397 1 14.4202 14.428 10.7679
278 1 16.2828 12.6505 7.26048
279 1 16.1626 10.9439 9.06611
299 1 16.3165 14.3404 9.09829
282 1 1.71332 16.3125 7.22894
283 1 1.91197 14.4591 9.05106
382 1 1.85201 16.3304 10.686
207 1 5.38721 17.9979 9.12541
287 1 5.51397 14.4794 8.9881
288 1 3.69213 16.2741 8.9489
292 1 7.17782 16.3306 8.97617
290 1 9.06475 16.2894 7.21734
313 1 10.7468 17.9919 10.766
291 1 9.03457 14.5089 9.01272
296 1 10.7824 16.3068 8.90785
390 1 9.11002 16.2715 10.788
215 1 12.5549 18.0338 9.02707
295 1 12.6664 14.5036 9.11155
300 1 14.3645 16.2134 9.05614
284 1 18.0354 16.1869 8.97637
301 1 17.9449 17.936 10.7897
398 1 16.1563 16.172 10.8179
321 1 0.0613695 3.52959 10.8918
303 1 1.78756 0.0299069 12.5561
308 1 3.54688 1.90931 12.5324
425 1 3.55106 3.54291 14.4457
304 1 0.00516103 1.72157 12.6754
306 1 5.50361 1.84904 10.8541
405 1 3.6454 0.065049 14.3118
307 1 5.43684 0.0904516 12.6132
312 1 7.11561 1.90462 12.7069
310 1 8.96353 1.86338 10.8587
311 1 9.02768 0.0962616 12.5624
331 1 8.97939 3.54565 12.5763
314 1 12.5977 1.73887 10.9479
316 1 10.8588 1.90152 12.6827
315 1 12.6368 0.0218122 12.7106
414 1 12.6984 1.84328 14.4002
320 1 14.5238 1.8177 12.7372
319 1 16.1912 0.0235415 12.6762
339 1 16.288 3.56493 12.5751
325 1 3.58987 3.73814 10.9051
323 1 1.7925 3.69006 12.6058
324 1 0.0797839 5.49208 12.572
328 1 3.5911 5.46082 12.7624
343 1 1.91084 7.21323 12.7107
422 1 1.76877 5.44311 14.4144
326 1 5.42482 5.46709 10.9387
327 1 5.32421 3.67474 12.6817
347 1 5.43875 7.2097 12.616
349 1 7.22757 7.22416 10.865
330 1 9.06461 5.5257 10.8725
433 1 10.833 3.71345 14.3652
332 1 7.231 5.51297 12.7269
336 1 10.7333 5.32318 12.5189
430 1 9.10674 5.37912 14.3511
334 1 12.6518 5.34511 10.8441
357 1 14.4195 7.15237 10.9037
335 1 12.6549 3.65523 12.6277
434 1 12.5366 5.52307 14.3326
341 1 18.0329 7.22125 10.9454
338 1 16.3107 5.43451 10.8519
340 1 14.53 5.32153 12.5645
359 1 16.1812 7.16073 12.7349
438 1 16.2794 5.4621 14.4072
342 1 1.84173 8.92796 10.9102
344 1 0.0960452 9.01813 12.7371
348 1 3.57751 9.0381 12.6289
363 1 1.74111 10.8032 12.6242
461 1 0.0882947 10.7425 14.3621
345 1 3.68254 7.27708 10.8893
352 1 7.1747 9.00102 12.7437
353 1 10.7884 7.27621 10.8621
350 1 9.00906 9.02376 10.9133
351 1 8.93925 7.25892 12.5954
453 1 10.7777 7.30996 14.3161
371 1 8.96178 10.7675 12.616
369 1 7.2362 10.8209 10.9064
354 1 12.6191 8.96412 10.881
355 1 12.5509 7.23321 12.685
356 1 10.8335 9.11472 12.5624
360 1 14.439 8.92488 12.5593
375 1 12.7084 10.719 12.6774
477 1 14.4168 10.7859 14.3856
379 1 16.1616 10.8023 12.6293
458 1 16.2808 8.9929 14.3567
362 1 1.74496 12.622 10.9135
368 1 3.51488 12.6871 12.6794
462 1 1.73724 12.6458 14.3127
481 1 0.0922096 14.3486 14.3467
367 1 5.39078 10.8466 12.7213
466 1 5.47247 12.7305 14.3964
372 1 7.2649 12.5534 12.7173
489 1 7.26085 14.3948 14.4386
391 1 9.11848 14.4265 12.7209
470 1 9.13569 12.654 14.4336
393 1 10.8409 14.3841 10.8301
374 1 12.6255 12.6149 10.9274
376 1 10.8559 12.5323 12.6204
493 1 10.9144 14.4015 14.4013
380 1 14.4205 12.6336 12.5699
474 1 12.7379 12.6484 14.3374
497 1 14.3805 14.3718 14.3954
473 1 10.8604 10.8488 14.4391
378 1 16.1771 12.6594 10.8764
364 1 18.0022 12.5499 12.5753
478 1 16.2155 12.5673 14.431
305 1 3.58408 18.0157 10.9335
383 1 1.75405 14.565 12.6106
384 1 0.0795769 16.2455 12.5212
388 1 3.52855 16.2396 12.562
386 1 5.52095 16.2973 10.8939
387 1 5.48676 14.4577 12.5336
486 1 5.47913 16.3014 14.3637
409 1 7.26469 17.994 14.4263
392 1 7.29899 16.1688 12.6044
490 1 8.98316 16.3053 14.3483
394 1 12.566 16.2921 10.941
417 1 14.3526 18.0018 14.4267
395 1 12.6284 14.4498 12.6515
396 1 10.8944 16.3297 12.6619
494 1 12.5664 16.1727 14.423
317 1 14.4478 18.0438 10.9168
399 1 16.3068 14.4753 12.6619
400 1 14.47 16.1395 12.6699
498 1 16.2989 16.2772 14.3858
2 1 1.78087 1.77416 18.0176
401 1 0.0998308 0.0274951 14.4863
402 1 1.86971 1.83098 14.4355
404 1 0.110298 1.9112 16.2072
408 1 3.57142 1.78412 16.3541
423 1 1.86856 3.55547 16.3368
6 1 5.47303 1.74479 18.0266
406 1 5.35227 1.90785 14.5275
407 1 5.3723 0.0437155 16.2573
427 1 5.34551 3.5489 16.3195
9 1 7.31277 0.0945824 18.0091
10 1 9.10993 1.88018 17.9778
410 1 9.00726 1.90067 14.4534
412 1 7.24365 1.83654 16.244
411 1 9.02054 0.128243 16.2649
437 1 14.3648 3.61911 14.5216
416 1 10.8809 1.91004 16.2045
420 1 14.3545 1.78249 16.3254
17 1 14.5614 0.0276124 17.9836
18 1 16.2389 1.84696 17.9783
418 1 16.3119 1.85791 14.5451
419 1 16.3568 0.0904089 16.2536
25 1 3.58589 3.65564 18.0406
441 1 0.0427982 7.17246 14.5285
428 1 3.57005 5.44129 16.2193
443 1 1.8267 7.15647 16.2488
424 1 0.0183188 5.36301 16.2194
29 1 7.18186 3.67182 18.014
426 1 5.40067 5.39974 14.5275
432 1 7.13055 5.47563 16.3149
447 1 5.48571 7.15409 16.3744
33 1 10.7795 3.6437 18.0019
429 1 7.27726 3.73859 14.4644
431 1 8.98057 3.71308 16.2977
37 1 14.343 3.69246 18.034
457 1 14.4001 7.14451 14.452
435 1 12.5608 3.66982 16.3384
436 1 10.8919 5.45002 16.3276
440 1 14.3994 5.50032 16.2916
455 1 12.6398 7.21248 16.2411
41 1 17.9919 7.20198 18.0155
38 1 16.2788 5.45793 18.0036
421 1 18.0343 3.65315 14.4983
439 1 16.1258 3.65349 16.3143
459 1 16.2858 7.18176 16.2686
442 1 1.93452 8.98214 14.5061
444 1 0.0226292 9.03548 16.1501
46 1 5.3999 8.95541 17.9791
445 1 3.74598 7.22564 14.4572
449 1 7.20634 7.30368 14.4887
465 1 3.65123 10.8312 14.4756
446 1 5.35076 8.98021 14.4426
448 1 3.65346 9.00952 16.1842
467 1 5.38347 10.781 16.1636
73 1 10.7637 10.756 18.0534
450 1 9.10949 8.99019 14.4942
451 1 9.02854 7.24129 16.1764
452 1 7.31535 9.13266 16.2256
456 1 10.8197 8.98003 16.3368
454 1 12.6694 9.01348 14.5368
460 1 14.4168 8.93879 16.1959
475 1 12.6608 10.7325 16.3002
57 1 14.5135 7.34247 18.0164
479 1 16.3483 10.7491 16.2732
81 1 0.0765967 14.4139 17.9925
463 1 1.75388 10.9089 16.1896
464 1 0.0767181 12.6335 16.2467
483 1 1.83011 14.3354 16.2301
468 1 3.69924 12.5561 16.154
70 1 8.95324 12.7167 18.0542
469 1 7.31928 10.8426 14.4998
471 1 9.0565 10.8994 16.2243
472 1 7.2866 12.6969 16.3386
77 1 14.4466 10.8244 17.9955
476 1 10.9271 12.526 16.2782
480 1 14.3823 12.5998 16.3407
495 1 12.6146 14.3363 16.1776
61 1 18.0531 10.9103 18.0019
82 1 1.71441 16.2471 18.0315
485 1 3.5886 14.5062 14.4481
482 1 1.78987 16.3464 14.5371
403 1 1.89007 18.0249 16.2363
5 1 3.61856 17.9817 18.0391
487 1 5.44495 14.5129 16.242
488 1 3.62708 16.2248 16.2213
491 1 9.01123 14.4528 16.2298
13 1 10.7841 17.9723 17.9796
90 1 9.07539 16.3262 18.0212
413 1 10.7407 18.059 14.5302
492 1 7.30246 16.3239 16.2556
496 1 10.797 16.2487 16.2195
415 1 12.5452 18.0171 16.2036
500 1 14.3404 16.2493 16.2561
97 1 14.4603 14.4633 17.972
98 1 16.2897 16.1364 17.9664
499 1 16.2132 14.4478 16.0862
484 1 17.9661 16.252 16.2413
ITEM: TIMESTEP
100
ITEM: NUMBER OF ATOMS
500
ITEM: BOX BOUNDS pp pp pp
0.0000000000000000e+00 1.8050000000000001e+01
0.0000000000000000e+00 1.8050000000000001e+01
0.0000000000000000e+00 1.8050000000000001e+01
ITEM: ATOMS id type x y z
3 1 1.73893 -0.0175131 1.75623
23 1 1.83983 3.56422 1.79965
102 1 1.85273 1.75869 3.53243
121 1 0.0370135 3.52648 3.53217
8 1 3.64899 1.79456 1.70617
106 1 5.33553 1.72713 3.57996
129 1 7.16646 3.56431 3.61858
27 1 5.38186 3.51884 1.79047
6 1 5.48054 1.75844 0.098904
25 1 3.62867 3.57021 0.0977606
7 1 5.4689 0.02072 1.8343
12 1 7.3251 1.73083 1.8347
11 1 9.14198 0.0226563 1.86269
31 1 8.98894 3.61176 1.79245
9 1 7.32048 0.0850368 0.036998
16 1 10.9085 1.849 1.82366
14 1 12.574 1.72032 0.0728436
20 1 14.3563 1.91929 1.84408
4 1 17.968 1.90447 1.71741
101 1 18.0103 0.0875165 3.60082
19 1 16.1807 0.114769 1.73487
118 1 16.2508 1.9189 3.56199
22 1 1.76162 5.41973 0.0276446
28 1 3.56263 5.42131 1.91948
43 1 1.73508 7.20088 1.80041
24 1 0.030773 5.38364 1.81723
125 1 3.6408 3.60449 3.56642
26 1 5.2786 5.45981 0.110979
32 1 7.17569 5.44864 1.79185
149 1 7.16547 7.23107 3.53393
47 1 5.37295 7.19076 1.74931
133 1 10.7671 3.74707 3.56146
30 1 8.98662 5.53941 0.0135037
36 1 10.7486 5.50677 1.83406
130 1 8.97317 5.44747 3.5678
51 1 9.02505 7.18598 1.86662
33 1 10.88 3.67495 0.0783309
35 1 12.5879 3.70448 1.84485
34 1 12.6495 5.57975 0.112518
40 1 14.4624 5.52378 1.80036
134 1 12.5644 5.47592 3.53672
37 1 14.3137 3.66316 0.0547979
21 1 17.9856 3.66383 0.011447
39 1 16.1446 3.66853 1.7207
59 1 16.2889 7.21408 1.89683
138 1 16.2689 5.36249 3.56366
38 1 16.2211 5.43655 0.0730707
45 1 3.51147 7.25834 0.0132523
44 1 0.00434145 9.07117 1.86937
48 1 3.60829 9.06098 1.82784
63 1 1.80433 10.8238 1.81835
141 1 0.0469053 7.27467 3.58384
52 1 7.20004 8.98158 1.81278
67 1 5.44902 10.7664 1.8169
49 1 7.31032 7.28889 0.0341822
50 1 9.09212 8.96391 0.0603907
71 1 9.03747 10.8287 1.81287
150 1 8.98646 8.98716 3.58623
73 1 10.7496 10.8411 0.0872514
53 1 10.8558 7.27399 0.0688422
55 1 12.7786 7.31844 1.85018
56 1 10.8798 8.96981 1.90739
54 1 12.6867 8.98063 0.0460881
75 1 12.5887 10.7415 1.77028
60 1 14.5766 9.05979 1.81117
79 1 16.3137 10.8166 1.81789
57 1 14.5394 7.30993 0.0152415
62 1 1.93866 12.5761 0.0743501
83 1 1.83635 14.4403 1.81753
181 1 0.00620056 14.3563 3.58089
64 1 0.0258688 12.6632 1.82212
68 1 3.62019 12.5638 1.79589
87 1 5.38625 14.4555 1.77365
166 1 5.49787 12.5622 3.59409
173 1 10.7207 10.8748 3.51603
72 1 7.30875 12.5725 1.79688
76 1 10.6936 12.708 1.81653
70 1 9.01301 12.7103 0.0497114
177 1 14.4241 10.8585 3.52501
74 1 12.5452 12.5422 0.0383567
80 1 14.441 12.5287 1.64965
174 1 12.6188 12.668 3.46814
197 1 14.4145 14.4033 3.56828
178 1 16.1428 12.6067 3.49603
105 1 3.57431 18.0462 3.57672
88 1 3.48998 16.2437 1.79267
182 1 1.63055 16.2869 3.5684
189 1 7.17374 14.5158 3.60343
185 1 3.64486 14.4273 3.52506
85 1 3.6165 14.4356 -0.0011037
86 1 5.47812 16.3045 0.0183189
186 1 5.3818 16.1854 3.55585
89 1 7.24602 14.5528 -0.00487256
91 1 9.00251 14.5576 1.84808
92 1 7.30857 16.4129 1.83888
95 1 12.7388 14.492 1.73692
96 1 10.9271 16.2271 1.8156
15 1 12.685 18.0379 1.88559
94 1 12.661 16.2909 0.0120152
84 1 17.9837 16.2372 1.78764
99 1 16.2319 14.4406 1.8141
100 1 14.5204 16.3726 1.77225
198 1 16.3121 16.2675 3.53431
17 1 14.5609 18.0186 0.0121439
103 1 1.73721 0.0574976 5.35653
108 1 3.59569 1.77406 5.33014
123 1 1.76783 3.5417 5.33013
225 1 3.51113 3.58579 7.20487
104 1 0.0243067 1.83917 5.37519
127 1 5.43488 3.57028 5.40293
206 1 5.31034 1.7134 7.2313
112 1 7.17599 1.70459 5.3292
209 1 7.18129 0.0176321 7.14901
110 1 9.08185 1.78211 3.61746
131 1 8.87188 3.53441 5.42039
116 1 10.7807 1.87334 5.376
213 1 10.8316 0.143477 7.1682
111 1 9.04842 0.0450412 5.39488
210 1 9.01069 1.82634 7.17689
114 1 12.6291 1.86211 3.67095
214 1 12.648 1.83051 7.14074
115 1 12.6062 0.042577 5.42613
117 1 14.4788 0.0698558 3.62206
120 1 14.519 1.74612 5.48053
139 1 16.2084 3.60329 5.45678
122 1 1.75067 5.42726 3.60444
128 1 3.59759 5.40426 5.36646
222 1 1.70392 5.38844 7.13908
221 1 0.0235457 3.64175 7.23267
245 1 3.47367 7.19657 7.22016
145 1 3.61329 7.15805 3.65501
126 1 5.42491 5.39484 3.64148
147 1 5.33465 7.17931 5.4927
226 1 5.33047 5.40587 7.20342
132 1 7.14932 5.37462 5.46723
136 1 10.6688 5.34827 5.4148
230 1 8.96853 5.3663 7.20744
253 1 10.7497 7.16475 7.16235
153 1 10.7856 7.14418 3.66081
135 1 12.6645 3.70498 5.41948
155 1 12.5857 7.15545 5.42
137 1 14.3512 3.76709 3.63719
140 1 14.4455 5.43917 5.55198
157 1 14.4931 7.19358 3.65035
124 1 18.0328 5.32915 5.33301
159 1 16.2823 7.19046 5.3525
238 1 16.2609 5.38352 7.18482
241 1 17.9546 7.16237 7.08846
142 1 1.89208 9.0071 3.69287
143 1 1.82868 7.29849 5.42633
163 1 1.8396 10.7961 5.42374
144 1 0.0643164 9.08659 5.35156
146 1 5.41501 8.93366 3.63905
148 1 3.6696 8.92587 5.43445
152 1 7.14591 8.92998 5.45709
167 1 5.56031 10.7504 5.45585
165 1 3.65311 10.7553 3.64709
169 1 7.25438 10.7567 3.65911
151 1 8.98266 7.20947 5.41624
171 1 8.98252 10.724 5.31038
273 1 10.865 10.7484 7.22068
156 1 10.894 9.0091 5.24112
154 1 12.693 8.97407 3.65713
160 1 14.3712 8.94023 5.42839
277 1 14.389 10.773 7.12997
158 1 16.196 9.04946 3.65487
258 1 16.255 9.05646 7.07953
161 1 0.0739683 10.8226 3.72619
162 1 1.91659 12.5896 3.71536
183 1 1.80469 14.3842 5.37401
168 1 3.65703 12.533 5.49143
187 1 5.39497 14.345 5.35265
172 1 7.19747 12.5275 5.36836
170 1 9.02259 12.7338 3.6365
176 1 10.7775 12.632 5.3693
175 1 12.5839 10.8388 5.33038
195 1 12.6395 14.3007 5.35368
274 1 12.6361 12.5157 7.16667
261 1 17.9483 10.8397 7.17068
179 1 16.2032 10.8717 5.37941
164 1 18.0129 12.7078 5.3296
180 1 14.4647 12.5078 5.39824
297 1 14.5176 14.3959 7.2001
199 1 16.1919 14.3752 5.3287
188 1 3.48748 16.2042 5.46337
184 1 0.0780886 16.1579 5.33333
109 1 7.2033 17.9307 3.6368
107 1 5.22263 17.9651 5.40391
192 1 7.1928 16.1748 5.35123
286 1 5.31202 16.2272 7.1586
191 1 9.0845 14.4837 5.46277
190 1 8.97397 16.1373 3.70101
290 1 8.95551 16.2709 7.15364
193 1 10.9589 14.4372 3.6776
113 1 10.9692 18.0304 3.69313
196 1 10.9598 16.0874 5.46727
194 1 12.7355 16.2149 3.64079
294 1 12.6393 16.1346 7.20865
200 1 14.4927 16.2959 5.40938
119 1 16.3332 18.0164 5.45701
202 1 1.83654 1.89508 7.23103
205 1 3.48982 0.0292674 7.23661
203 1 1.80996 0.0457524 9.05571
204 1 0.0302006 1.82862 8.98743
208 1 3.63706 1.889 9.16014
229 1 7.13964 3.57427 7.24956
212 1 7.12253 1.84199 9.02916
227 1 5.34979 3.5855 8.98725
207 1 5.37197 0.110029 9.04235
306 1 5.44082 1.94551 10.8046
233 1 10.7469 3.60406 7.23518
211 1 8.99372 0.0540187 8.97823
313 1 10.7665 0.0961651 10.8102
310 1 8.96189 1.88247 10.766
333 1 10.8527 3.54856 10.7404
216 1 10.8142 1.80336 9.02796
220 1 14.3771 1.71358 9.09239
235 1 12.5998 3.60263 8.95633
337 1 14.5363 3.52021 10.7905
218 1 16.2194 1.74697 7.31256
237 1 14.5285 3.51716 7.22291
318 1 16.2877 1.8098 10.8258
223 1 1.78228 3.7434 9.03487
224 1 0.0141851 5.46855 9.04923
228 1 3.51611 5.51924 9.0113
249 1 7.18671 7.21405 7.29769
329 1 7.13979 3.77585 10.8365
232 1 7.17461 5.44826 9.00703
247 1 5.32939 7.22959 9.04675
231 1 8.92119 3.67597 9.06998
236 1 10.8422 5.43043 8.9685
251 1 9.07794 7.14519 9.00412
330 1 8.93889 5.48746 10.7666
234 1 12.6218 5.37883 7.25105
255 1 12.543 7.17942 9.03831
334 1 12.5656 5.43402 10.783
239 1 16.3672 3.62491 9.06748
240 1 14.4403 5.40513 8.9827
259 1 16.2925 7.11635 9.03625
265 1 3.61561 10.8142 7.36906
242 1 1.70431 8.9987 7.21333
243 1 1.68813 7.22028 9.03187
248 1 3.49189 8.98864 9.03878
246 1 5.39 8.92097 7.36019
267 1 5.45668 10.7806 8.98378
269 1 7.23534 10.6326 7.22957
250 1 8.97194 8.96453 7.22437
252 1 7.21675 8.94465 9.06782
256 1 10.8071 9.06265 9.08171
254 1 12.5266 8.93863 7.22994
275 1 12.691 10.6753 8.91098
354 1 12.67 8.96582 10.768
377 1 14.3843 10.8002 10.8024
257 1 14.4314 7.20532 7.24754
244 1 17.8671 9.02926 8.97326
361 1 18.028 10.7039 10.7917
260 1 14.4958 8.98419 9.08708
281 1 0.034912 14.3602 7.2305
262 1 1.78412 12.6143 7.22682
365 1 3.52682 10.8484 10.7946
263 1 1.74025 10.8133 9.0628
264 1 0.0245878 12.6263 9.02396
381 1 0.0435086 14.4573 10.8049
266 1 5.52525 12.5065 7.25692
285 1 3.68037 14.4123 7.27101
268 1 3.67642 12.597 9.00314
270 1 9.0411 12.5061 7.25431
272 1 7.28026 12.5967 8.97826
293 1 10.8197 14.3713 7.23848
271 1 8.97118 10.831 9.11679
389 1 7.3644 14.3824 10.8245
370 1 9.09048 12.6122 10.8148
373 1 10.9141 10.8316 10.7894
276 1 10.8467 12.5373 8.97496
280 1 14.3067 12.607 8.99028
278 1 16.2133 12.6288 7.22258
279 1 16.1354 10.9272 8.97072
299 1 16.2567 14.3602 9.03052
201 1 0.0453102 18.0065 7.29251
282 1 1.83004 16.2665 7.23147
283 1 1.85719 14.4373 8.97627
382 1 1.8363 16.2107 10.6798
287 1 5.46756 14.4413 9.07872
288 1 3.68951 16.2154 9.01954
292 1 7.25451 16.313 8.98574
289 1 7.25644 14.4166 7.25248
291 1 9.00911 14.4325 8.98575
390 1 9.0537 16.1916 10.8022
393 1 10.8529 14.4582 10.8067
296 1 10.8751 16.2569 8.94524
217 1 14.3956 18.0564 7.25695
215 1 12.6308 17.9991 9.0065
295 1 12.4756 14.4939 9.08038
300 1 14.4148 16.259 9.02884
298 1 16.1544 16.1874 7.28228
219 1 16.1678 17.9397 8.94492
284 1 17.9845 16.2253 9.00858
301 1 17.9508 17.9638 10.7519
398 1 16.2033 16.1677 10.8086
302 1 1.74658 1.80288 10.8839
303 1 1.76004 0.0237142 12.5578
308 1 3.57452 1.89985 12.5019
304 1 0.00184919 1.75908 12.6965
402 1 1.8458 1.81967 14.3998
405 1 3.6444 0.0668238 14.3008
307 1 5.49734 0.103008 12.6128
312 1 7.1314 1.95314 12.7444
305 1 3.70843 0.0779157 10.8522
309 1 7.30038 0.0327856 10.8704
311 1 9.00439 0.161463 12.6257
409 1 7.22939 0.119427 14.3886
316 1 10.8108 1.8448 12.6905
314 1 12.6404 1.7296 10.9437
315 1 12.5939 0.0241913 12.7552
320 1 14.5404 1.89344 12.6924
339 1 16.3343 3.56354 12.6304
322 1 1.884 5.61603 10.8612
321 1 0.030551 3.65765 10.8664
323 1 1.75104 3.67872 12.6538
324 1 0.0362052 5.44349 12.6572
421 1 0.0215872 3.65413 14.3965
328 1 3.62578 5.45145 12.7616
325 1 3.62642 3.77488 10.8529
326 1 5.37182 5.43349 10.9331
327 1 5.40042 3.71129 12.7384
345 1 3.62992 7.17968 10.9158
332 1 7.21459 5.46035 12.734
331 1 8.92562 3.64441 12.5315
336 1 10.7991 5.36587 12.4648
430 1 9.08535 5.51503 14.4294
357 1 14.4129 7.0901 10.812
335 1 12.682 3.6261 12.6107
434 1 12.5311 5.4518 14.383
457 1 14.4103 7.13764 14.3936
355 1 12.5861 7.21454 12.5707
338 1 16.3176 5.39699 10.8354
340 1 14.4711 5.29134 12.6524
359 1 16.2776 7.2014 12.657
343 1 1.89612 7.24501 12.7659
342 1 1.71745 8.95613 10.8261
344 1 0.0491265 8.89004 12.7014
363 1 1.86953 10.7577 12.5701
461 1 -0.00987151 10.8236 14.4254
346 1 5.40645 9.09911 10.8667
348 1 3.67706 9.10985 12.6511
347 1 5.43194 7.28991 12.6845
352 1 7.12891 9.08784 12.7108
349 1 7.17307 7.26207 10.8745
369 1 7.20358 10.7911 10.8596
353 1 10.7935 7.22655 10.8568
350 1 8.97984 9.05815 10.8501
351 1 8.99989 7.32317 12.7164
453 1 10.7878 7.24994 14.3449
371 1 9.07159 10.8168 12.6652
356 1 10.8263 9.15627 12.6029
450 1 9.09523 9.13346 14.4303
375 1 12.698 10.7078 12.6482
358 1 16.2116 8.97111 10.9242
360 1 14.438 8.92428 12.6159
341 1 18.0183 7.34098 10.9085
379 1 16.1846 10.7343 12.5588
458 1 16.2159 8.97053 14.4142
362 1 1.79569 12.567 10.88
368 1 3.631 12.6652 12.6329
462 1 1.81571 12.6058 14.3213
481 1 0.0155968 14.4541 14.393
465 1 3.55241 10.8769 14.3623
366 1 5.43574 12.5507 10.8561
385 1 3.69127 14.4261 10.8242
367 1 5.37626 10.8674 12.684
466 1 5.45479 12.737 14.4316
387 1 5.45431 14.3959 12.5489
372 1 7.33757 12.6336 12.6454
391 1 9.16438 14.4144 12.6222
397 1 14.3926 14.436 10.8836
374 1 12.5964 12.655 10.8307
376 1 10.8805 12.4786 12.6472
493 1 10.8575 14.3552 14.4458
474 1 12.6718 12.4758 14.3945
395 1 12.5834 14.4335 12.5461
497 1 14.4772 14.4077 14.4377
380 1 14.4848 12.6687 12.6169
378 1 16.2165 12.6184 10.8449
364 1 17.9235 12.5066 12.5569
399 1 16.3279 14.4034 12.6513
383 1 1.82201 14.529 12.571
384 1 0.0103272 16.3127 12.5699
388 1 3.61383 16.2201 12.616
485 1 3.62804 14.5094 14.3728
386 1 5.47588 16.2406 10.8821
486 1 5.46355 16.2633 14.3181
392 1 7.36075 16.2288 12.5346
490 1 9.07852 16.2687 14.4157
396 1 10.7458 16.3278 12.6816
394 1 12.5994 16.3159 10.8798
317 1 14.4017 18.0143 10.9494
400 1 14.4189 16.182 12.6754
319 1 16.2627 18.0313 12.7231
498 1 16.3204 16.3035 14.4107
2 1 1.7795 1.75459 18.0488
401 1 0.0674935 0.0478307 14.4568
404 1 0.0791092 1.88512 16.2686
408 1 3.61573 1.74867 16.3314
403 1 1.84586 0.0187817 16.2734
406 1 5.38439 1.87997 14.4939
29 1 7.16158 3.54808 18.0555
412 1 7.2078 1.91049 16.1667
10 1 9.10509 1.88883 18.0471
410 1 9.01004 1.95817 14.4492
411 1 9.05723 0.131251 16.181
413 1 10.7494 0.112492 14.4288
414 1 12.6142 1.87308 14.4653
416 1 10.8933 1.93374 16.1776
420 1 14.3032 1.805 16.2531
13 1 10.8484 0.0529677 18.0537
415 1 12.5582 0.00781411 16.2104
1 1 17.989 0.0204244 17.9796
18 1 16.2188 1.9317 18.0473
418 1 16.2287 1.88105 14.564
419 1 16.3146 0.0500306 16.1932
425 1 3.5328 3.64317 14.5142
423 1 1.85564 3.68342 16.2788
422 1 1.82075 5.37557 14.5157
441 1 0.0509021 7.20394 14.46
428 1 3.59873 5.43108 16.2829
443 1 1.82829 7.19436 16.3324
424 1 0.048173 5.30523 16.3318
41 1 0.025284 7.21323 18.0095
427 1 5.34248 3.64416 16.321
426 1 5.42005 5.38622 14.5602
432 1 7.20678 5.46763 16.3554
447 1 5.42789 7.21194 16.4237
445 1 3.72651 7.18831 14.5399
429 1 7.19341 3.7448 14.5294
431 1 9.02773 3.78205 16.2105
451 1 9.04886 7.14424 16.2873
436 1 10.7924 5.54636 16.2347
433 1 10.8657 3.68323 14.4669
437 1 14.3883 3.74288 14.5518
435 1 12.6227 3.70691 16.2709
440 1 14.3601 5.50228 16.2717
438 1 16.2574 5.31964 14.4657
439 1 16.1497 3.69488 16.2903
65 1 3.57714 10.7775 18.0094
42 1 1.73149 9.11288 17.9619
442 1 1.93403 8.97044 14.5036
444 1 0.0824684 8.99001 16.2145
448 1 3.59084 8.98906 16.3401
46 1 5.4263 9.05225 17.956
449 1 7.19416 7.23311 14.5747
446 1 5.46175 9.0258 14.496
467 1 5.53864 10.842 16.2239
69 1 7.26738 10.8475 18.0072
452 1 7.32257 9.03644 16.298
455 1 12.5621 7.24795 16.2823
456 1 10.8382 8.96562 16.277
454 1 12.5873 8.95124 14.4393
475 1 12.6512 10.7664 16.2376
473 1 10.9234 10.7634 14.4762
58 1 16.4105 9.0355 18.0139
477 1 14.4911 10.7481 14.4974
459 1 16.2804 7.26554 16.1772
460 1 14.5787 8.99604 16.2186
479 1 16.2651 10.8157 16.1775
77 1 14.5467 10.7216 18.034
81 1 0.00141065 14.4076 18.0306
463 1 1.89193 10.9044 16.2365
483 1 1.91264 14.3715 16.2084
61 1 0.0515641 10.9072 18.0492
66 1 5.4842 12.5808 18.0094
468 1 3.66709 12.6662 16.2455
472 1 7.17697 12.6659 16.2783
470 1 9.14016 12.6219 14.4874
469 1 7.27173 10.8922 14.5044
471 1 9.11856 10.8931 16.3016
476 1 10.9078 12.5965 16.2781
480 1 14.4334 12.5392 16.2846
495 1 12.6004 14.3636 16.3001
97 1 14.3969 14.4322 17.9367
78 1 16.2992 12.6999 17.9984
464 1 17.9933 12.6557 16.148
478 1 16.2284 12.5041 14.4334
499 1 16.2351 14.3809 16.0513
82 1 1.77995 16.2164 17.961
482 1 1.80457 16.2554 14.4468
5 1 3.56726 17.9918 18.0517
407 1 5.43088 18.0343 16.1687
487 1 5.49159 14.5427 16.2695
488 1 3.66467 16.25 16.2165
489 1 7.29508 14.4718 14.4505
491 1 9.11801 14.4748 16.2065