
     Program PWSCF v.7.5 starts on 15Mar2026 at 15:52:16 

     This program is part of the open-source Quantum ESPRESSO suite
     for quantum simulation of materials; please cite
         "P. Giannozzi et al., J. Phys.:Condens. Matter 21 395502 (2009);
         "P. Giannozzi et al., J. Phys.:Condens. Matter 29 465901 (2017);
         "P. Giannozzi et al., J. Chem. Phys. 152 154105 (2020);
          URL http://www.quantum-espresso.org", 
     in publications or presentations arising from this work. More details at
     http://www.quantum-espresso.org/quote

     Parallel version (MPI), running on     1 processors

     MPI processes distributed on     1 nodes
     3501 MiB available memory on the printing compute node when the environment starts

     Reading input from espresso.pwi
Warning: card &CELL ignored
Warning: card &FCP ignored
Warning: card &RISM ignored

     Current dimensions of program PWSCF are:
     Max number of different atomic species (ntypx) = 10
     Max number of k-points (npk) =  40000
     Max angular momentum in pseudopotentials (lmaxx) =  4
     Message from routine setup:
     using ibrav=0 with symmetry is DISCOURAGED, use correct ibrav instead

     Subspace diagonalization in iterative solution of the eigenvalue problem:
     a serial algorithm will be used


     G-vector sticks info
     --------------------
     sticks:   dense  smooth     PW     G-vecs:    dense   smooth      PW
     Sum         253     121     55                 2733      941     259

     Using Slab Decomposition



     bravais-lattice index     =            0
     lattice parameter (alat)  =       3.4248  a.u.
     unit-cell volume          =      28.4052 (a.u.)^3
     number of atoms/cell      =            1
     number of atomic types    =            1
     number of electrons       =        11.00
     number of Kohn-Sham states=           10
     kinetic-energy cutoff     =      40.0000  Ry
     charge density cutoff     =     320.0000  Ry
     scf convergence threshold =      1.0E-06
     mixing beta               =       0.7000
     number of iterations used =            8  plain     mixing
     Exchange-correlation= LDA
                           (   1   1   0   0   0   0   0)

     celldm(1)=   3.424820  celldm(2)=   0.000000  celldm(3)=   0.000000
     celldm(4)=   0.000000  celldm(5)=   0.000000  celldm(6)=   0.000000

     crystal axes: (cart. coord. in units of alat)
               a(1) = (   0.000000   0.707107   0.707107 )  
               a(2) = (   0.707107   0.000000   0.707107 )  
               a(3) = (   0.707107   0.707107   0.000000 )  

     reciprocal axes: (cart. coord. in units 2 pi/alat)
               b(1) = ( -0.707107  0.707107  0.707107 )  
               b(2) = (  0.707107 -0.707107  0.707107 )  
               b(3) = (  0.707107  0.707107 -0.707107 )  


     PseudoPot. # 1 for Au read from file:
     /home/kenobi/Workspaces/PHYS400/pseudopotentials/Au.pz-rrkjus_aewfc.UPF
     MD5 check sum: a6a73ca633fd0b71782ee3cea1e65e2b
     Pseudo is Ultrasoft, Zval = 11.0
     Generated using "atomic" code by A. Dal Corso  (Quantum ESPRESSO distribution)
     Using radial grid of 1279 points,  3 beta functions with: 
                l(1) =   1
                l(2) =   2
                l(3) =   2
     Q(r) pseudized with 0 coefficients 


     atomic species   valence    mass     pseudopotential
     Au               11.00   196.96657     Au( 1.00)

     48 Sym. Ops., with inversion, found



   Cartesian axes

     site n.     atom                  positions (alat units)
         1        Au     tau(   1) = (   0.0000000   0.0000000   0.0000000  )

     number of k points=    16  Marzari-Vanderbilt smearing, width (Ry)=  0.0200
                       cart. coord. in units 2pi/alat
        k(    1) = (   0.0000000   0.0000000   0.0000000), wk =   0.0092593
        k(    2) = (   0.1178511   0.1178511  -0.1178511), wk =   0.0740741
        k(    3) = (   0.2357023   0.2357023  -0.2357023), wk =   0.0740741
        k(    4) = (  -0.3535534  -0.3535534   0.3535534), wk =   0.0370370
        k(    5) = (   0.2357023   0.0000000   0.0000000), wk =   0.0555556
        k(    6) = (   0.3535534   0.1178511  -0.1178511), wk =   0.2222222
        k(    7) = (  -0.2357023  -0.4714045   0.4714045), wk =   0.2222222
        k(    8) = (  -0.1178511  -0.3535534   0.3535534), wk =   0.2222222
        k(    9) = (   0.0000000  -0.2357023   0.2357023), wk =   0.1111111
        k(   10) = (   0.4714045   0.0000000   0.0000000), wk =   0.0555556
        k(   11) = (  -0.1178511  -0.5892557   0.5892557), wk =   0.2222222
        k(   12) = (  -0.0000000  -0.4714045   0.4714045), wk =   0.1111111
        k(   13) = (  -0.7071068   0.0000000   0.0000000), wk =   0.0277778
        k(   14) = (  -0.2357023  -0.4714045   0.7071068), wk =   0.2222222
        k(   15) = (  -0.1178511  -0.3535534   0.5892557), wk =   0.2222222
        k(   16) = (  -0.7071068   0.2357023   0.0000000), wk =   0.1111111

     Dense  grid:     2733 G-vectors     FFT dimensions: (  20,  20,  20)

     Smooth grid:      941 G-vectors     FFT dimensions: (  15,  15,  15)

     Estimated max dynamical RAM per process >       7.47 MB

     Initial potential from superposition of free atoms

     starting charge      10.9999, renormalised to      11.0000
     Starting wfcs are    9 randomized atomic wfcs +    1 random wfcs

     total cpu time spent up to now is        0.3 secs

     Self-consistent Calculation

     iteration #  1     ecut=    40.00 Ry     beta= 0.70
     Davidson diagonalization with overlap
     ethr =  1.00E-02,  avg # of iterations =  5.8

     Threshold (ethr) on eigenvalues was too large:
     Diagonalizing with lowered threshold

     Davidson diagonalization with overlap
     ethr =  7.47E-04,  avg # of iterations =  1.0

     total cpu time spent up to now is        0.4 secs

     total energy              =     -60.06267751 Ry
     estimated scf accuracy    <       0.08211853 Ry

     iteration #  2     ecut=    40.00 Ry     beta= 0.70
     Davidson diagonalization with overlap
     ethr =  7.47E-04,  avg # of iterations =  1.0

     total cpu time spent up to now is        0.4 secs

     total energy              =     -60.06900456 Ry
     estimated scf accuracy    <       0.00145808 Ry

     iteration #  3     ecut=    40.00 Ry     beta= 0.70
     Davidson diagonalization with overlap
     ethr =  1.33E-05,  avg # of iterations =  2.6

     total cpu time spent up to now is        0.5 secs

     total energy              =     -60.06916949 Ry
     estimated scf accuracy    <       0.00001473 Ry

     iteration #  4     ecut=    40.00 Ry     beta= 0.70
     Davidson diagonalization with overlap
     ethr =  1.34E-07,  avg # of iterations =  1.8

     total cpu time spent up to now is        0.5 secs

     End of self-consistent calculation

          k = 0.0000 0.0000 0.0000 (   113 PWs)   bands (ev):

    51.5959  56.7599  56.7599  56.7599  69.4672  69.4672 108.1712 118.2560
   121.3878 121.3878

          k = 0.1179 0.1179-0.1179 (   122 PWs)   bands (ev):

    52.3886  58.6292  58.6433  58.6433  68.4400  68.4400 107.8498 115.1287
   127.2715 127.2715

          k = 0.2357 0.2357-0.2357 (   117 PWs)   bands (ev):

    47.7461  57.3185  57.3185  71.3528  74.0915  74.0915 101.8532 117.5069
   133.9374 133.9374

          k =-0.3536-0.3536 0.3536 (   120 PWs)   bands (ev):

    45.6750  55.6071  55.6071  79.3369  79.7021  79.7021 104.1434 105.7940
   127.4077 127.4077

          k = 0.2357 0.0000 0.0000 (   125 PWs)   bands (ev):

    52.0253  55.3745  61.5145  61.5145  64.7902  71.7753 112.0133 116.8101
   123.0018 123.0018

          k = 0.3536 0.1179-0.1179 (   126 PWs)   bands (ev):

    49.1496  54.6706  61.0978  63.0904  76.2840  76.3527 108.0067 120.7665
   124.4015 127.6977

          k =-0.2357-0.4714 0.4714 (   123 PWs)   bands (ev):

    48.0862  53.3998  60.3330  66.2130  80.1988  89.5253 104.0795 110.8954
   124.0620 126.9724

          k =-0.1179-0.3536 0.3536 (   121 PWs)   bands (ev):

    50.2778  54.1492  59.8495  66.1579  72.5633  89.1217 105.8124 113.7491
   121.9158 133.6826

          k = 0.0000-0.2357 0.2357 (   127 PWs)   bands (ev):

    53.3618  56.1000  60.9471  62.5384  63.2858  78.0454 107.8991 121.0141
   123.9811 126.4456

          k = 0.4714 0.0000 0.0000 (   129 PWs)   bands (ev):

    44.8332  46.0794  73.4833  73.4833  76.8619  77.4930 115.8834 115.8834
   116.4996 125.6341

          k =-0.1179-0.5893 0.5893 (   120 PWs)   bands (ev):

    43.6848  46.9890  70.5535  71.9952  81.3453  93.4804 104.3085 114.0440
   115.6171 126.5261

          k =-0.0000-0.4714 0.4714 (   122 PWs)   bands (ev):

    46.5387  56.0885  62.1634  67.0231  75.5627  95.8496 108.9714 110.2063
   123.3005 123.9454

          k =-0.7071 0.0000 0.0000 (   116 PWs)   bands (ev):

    40.8437  41.8873  79.7104  82.9706  82.9706  88.3519 106.2076 106.2076
   114.0459 123.3147

          k =-0.2357-0.4714 0.7071 (   122 PWs)   bands (ev):

    50.4712  50.5186  59.4049  71.1274  73.3771  90.9260 109.2235 115.4211
   116.9131 132.7340

          k =-0.1179-0.3536 0.5893 (   118 PWs)   bands (ev):

    49.2248  53.4275  60.1122  66.2530  78.8619  99.1750 102.5484 115.0150
   116.2399 128.3447

          k =-0.7071 0.2357 0.0000 (   112 PWs)   bands (ev):

    45.6245  48.6620  65.7671  70.6348  83.0012 100.6879 106.1935 106.8423
   113.2781 133.2377

     the Fermi energy is    89.5325 ev

!    total energy              =     -60.06917075 Ry
     estimated scf accuracy    <       0.00000009 Ry
     smearing contrib. (-TS)   =      -0.00001205 Ry
     internal energy E=F+TS    =     -60.06915870 Ry

     The total energy is F=E-TS. E is the sum of the following terms:
     one-electron contribution =      67.30228665 Ry
     hartree contribution      =       0.76207747 Ry
     xc contribution           =     -13.59305463 Ry
     ewald contribution        =    -114.54046820 Ry

     convergence has been achieved in   4 iterations

     Forces acting on atoms (cartesian axes, Ry/au):

     atom    1 type  1   force =     0.00000000    0.00000000    0.00000000

     Total force =     0.000000     Total SCF correction =     0.000000


     Computing stress (Cartesian axis) and pressure

          total   stress  (Ry/bohr**3)                   (kbar)     P=    88231.53
   0.59978573   0.00000000   0.00000000        88231.53        0.00        0.00
   0.00000000   0.59978573  -0.00000000            0.00    88231.53       -0.00
   0.00000000  -0.00000000   0.59978573            0.00       -0.00    88231.53


     Writing all to output data dir ./pwscf.save/ :
     XML data file, charge density, pseudopotentials, collected wavefunctions

     init_run     :      0.23s CPU      0.23s WALL (       1 calls)
     electrons    :      0.20s CPU      0.21s WALL (       1 calls)
     forces       :      0.01s CPU      0.01s WALL (       1 calls)
     stress       :      0.05s CPU      0.05s WALL (       1 calls)

     Called by init_run:
     wfcinit      :      0.01s CPU      0.01s WALL (       1 calls)
     potinit      :      0.02s CPU      0.02s WALL (       1 calls)
     hinit0       :      0.19s CPU      0.19s WALL (       1 calls)

     Called by electrons:
     c_bands      :      0.14s CPU      0.14s WALL (       5 calls)
     sum_band     :      0.04s CPU      0.04s WALL (       5 calls)
     v_of_rho     :      0.00s CPU      0.00s WALL (       5 calls)
     newd         :      0.02s CPU      0.02s WALL (       5 calls)
     mix_rho      :      0.00s CPU      0.00s WALL (       5 calls)

     Called by c_bands:
     init_us_2    :      0.00s CPU      0.00s WALL (     208 calls)
     cegterg      :      0.13s CPU      0.14s WALL (      80 calls)

     Called by *egterg:
     cdiaghg      :      0.02s CPU      0.02s WALL (     257 calls)
     h_psi        :      0.09s CPU      0.10s WALL (     289 calls)
     s_psi        :      0.00s CPU      0.00s WALL (     289 calls)
     g_psi        :      0.00s CPU      0.00s WALL (     193 calls)

     Called by h_psi:
     h_psi:calbec :      0.01s CPU      0.01s WALL (     289 calls)
     vloc_psi     :      0.08s CPU      0.09s WALL (     289 calls)
                                        0.00s GPU  (     289 calls)
     add_vuspsi   :      0.00s CPU      0.00s WALL (     289 calls)

     General routines
     calbec       :      0.01s CPU      0.01s WALL (     641 calls)
     fft          :      0.00s CPU      0.00s WALL (      34 calls)
     ffts         :      0.00s CPU      0.00s WALL (      10 calls)
     fftw         :      0.08s CPU      0.09s WALL (    5092 calls)
     interpolate  :      0.00s CPU      0.00s WALL (       5 calls)

     Parallel routines

     PWSCF        :      0.57s CPU      0.58s WALL


   This run was terminated on:  15:52:17  15Mar2026            

=------------------------------------------------------------------------------=
   JOB DONE.
=------------------------------------------------------------------------------=
