
     Program PWSCF v.7.5 starts on 15Mar2026 at 15:52: 2 

     This program is part of the open-source Quantum ESPRESSO suite
     for quantum simulation of materials; please cite
         "P. Giannozzi et al., J. Phys.:Condens. Matter 21 395502 (2009);
         "P. Giannozzi et al., J. Phys.:Condens. Matter 29 465901 (2017);
         "P. Giannozzi et al., J. Chem. Phys. 152 154105 (2020);
          URL http://www.quantum-espresso.org", 
     in publications or presentations arising from this work. More details at
     http://www.quantum-espresso.org/quote

     Parallel version (MPI), running on     1 processors

     MPI processes distributed on     1 nodes
     3443 MiB available memory on the printing compute node when the environment starts

     Reading input from espresso.pwi
Warning: card &CELL ignored
Warning: card &FCP ignored
Warning: card &RISM ignored

     Current dimensions of program PWSCF are:
     Max number of different atomic species (ntypx) = 10
     Max number of k-points (npk) =  40000
     Max angular momentum in pseudopotentials (lmaxx) =  4
     Message from routine setup:
     using ibrav=0 with symmetry is DISCOURAGED, use correct ibrav instead

     Subspace diagonalization in iterative solution of the eigenvalue problem:
     a serial algorithm will be used


     G-vector sticks info
     --------------------
     sticks:   dense  smooth     PW     G-vecs:    dense   smooth      PW
     Sum         625     313    109                10177     3695     725

     Using Slab Decomposition



     bravais-lattice index     =            0
     lattice parameter (alat)  =       5.3065  a.u.
     unit-cell volume          =     105.6579 (a.u.)^3
     number of atoms/cell      =            1
     number of atomic types    =            1
     number of electrons       =        11.00
     number of Kohn-Sham states=           10
     kinetic-energy cutoff     =      40.0000  Ry
     charge density cutoff     =     320.0000  Ry
     scf convergence threshold =      1.0E-06
     mixing beta               =       0.7000
     number of iterations used =            8  plain     mixing
     Exchange-correlation= LDA
                           (   1   1   0   0   0   0   0)

     celldm(1)=   5.306469  celldm(2)=   0.000000  celldm(3)=   0.000000
     celldm(4)=   0.000000  celldm(5)=   0.000000  celldm(6)=   0.000000

     crystal axes: (cart. coord. in units of alat)
               a(1) = (   0.000000   0.707107   0.707107 )  
               a(2) = (   0.707107   0.000000   0.707107 )  
               a(3) = (   0.707107   0.707107   0.000000 )  

     reciprocal axes: (cart. coord. in units 2 pi/alat)
               b(1) = ( -0.707107  0.707107  0.707107 )  
               b(2) = (  0.707107 -0.707107  0.707107 )  
               b(3) = (  0.707107  0.707107 -0.707107 )  


     PseudoPot. # 1 for Au read from file:
     /home/kenobi/Workspaces/PHYS400/pseudopotentials/Au.pz-rrkjus_aewfc.UPF
     MD5 check sum: a6a73ca633fd0b71782ee3cea1e65e2b
     Pseudo is Ultrasoft, Zval = 11.0
     Generated using "atomic" code by A. Dal Corso  (Quantum ESPRESSO distribution)
     Using radial grid of 1279 points,  3 beta functions with: 
                l(1) =   1
                l(2) =   2
                l(3) =   2
     Q(r) pseudized with 0 coefficients 


     atomic species   valence    mass     pseudopotential
     Au               11.00   196.96657     Au( 1.00)

     48 Sym. Ops., with inversion, found



   Cartesian axes

     site n.     atom                  positions (alat units)
         1        Au     tau(   1) = (   0.0000000   0.0000000   0.0000000  )

     number of k points=    16  Marzari-Vanderbilt smearing, width (Ry)=  0.0200
                       cart. coord. in units 2pi/alat
        k(    1) = (   0.0000000   0.0000000   0.0000000), wk =   0.0092593
        k(    2) = (   0.1178511   0.1178511  -0.1178511), wk =   0.0740741
        k(    3) = (   0.2357023   0.2357023  -0.2357023), wk =   0.0740741
        k(    4) = (  -0.3535534  -0.3535534   0.3535534), wk =   0.0370370
        k(    5) = (   0.2357023   0.0000000   0.0000000), wk =   0.0555556
        k(    6) = (   0.3535534   0.1178511  -0.1178511), wk =   0.2222222
        k(    7) = (  -0.2357023  -0.4714045   0.4714045), wk =   0.2222222
        k(    8) = (  -0.1178511  -0.3535534   0.3535534), wk =   0.2222222
        k(    9) = (   0.0000000  -0.2357023   0.2357023), wk =   0.1111111
        k(   10) = (   0.4714045   0.0000000   0.0000000), wk =   0.0555556
        k(   11) = (  -0.1178511  -0.5892557   0.5892557), wk =   0.2222222
        k(   12) = (  -0.0000000  -0.4714045   0.4714045), wk =   0.1111111
        k(   13) = (  -0.7071068   0.0000000   0.0000000), wk =   0.0277778
        k(   14) = (  -0.2357023  -0.4714045   0.7071068), wk =   0.2222222
        k(   15) = (  -0.1178511  -0.3535534   0.5892557), wk =   0.2222222
        k(   16) = (  -0.7071068   0.2357023   0.0000000), wk =   0.1111111

     Dense  grid:    10177 G-vectors     FFT dimensions: (  32,  32,  32)

     Smooth grid:     3695 G-vectors     FFT dimensions: (  24,  24,  24)

     Estimated max dynamical RAM per process >      26.89 MB

     Initial potential from superposition of free atoms

     starting charge      10.9999, renormalised to      11.0000
     Starting wfcs are    9 randomized atomic wfcs +    1 random wfcs

     total cpu time spent up to now is        0.3 secs

     Self-consistent Calculation

     iteration #  1     ecut=    40.00 Ry     beta= 0.70
     Davidson diagonalization with overlap
     ethr =  1.00E-02,  avg # of iterations =  5.8

     Threshold (ethr) on eigenvalues was too large:
     Diagonalizing with lowered threshold

     Davidson diagonalization with overlap
     ethr =  6.41E-04,  avg # of iterations =  1.1

     total cpu time spent up to now is        0.7 secs

     total energy              =     -66.81153724 Ry
     estimated scf accuracy    <       0.07201709 Ry

     iteration #  2     ecut=    40.00 Ry     beta= 0.70
     Davidson diagonalization with overlap
     ethr =  6.55E-04,  avg # of iterations =  2.4

     total cpu time spent up to now is        0.8 secs

     total energy              =     -66.83312708 Ry
     estimated scf accuracy    <       0.01886202 Ry

     iteration #  3     ecut=    40.00 Ry     beta= 0.70
     Davidson diagonalization with overlap
     ethr =  1.71E-04,  avg # of iterations =  1.7

     total cpu time spent up to now is        1.0 secs

     total energy              =     -66.83672376 Ry
     estimated scf accuracy    <       0.00002128 Ry

     iteration #  4     ecut=    40.00 Ry     beta= 0.70
     Davidson diagonalization with overlap
     ethr =  1.93E-07,  avg # of iterations =  3.1

     total cpu time spent up to now is        1.1 secs

     total energy              =     -66.83673840 Ry
     estimated scf accuracy    <       0.00000246 Ry

     iteration #  5     ecut=    40.00 Ry     beta= 0.70
     Davidson diagonalization with overlap
     ethr =  2.23E-08,  avg # of iterations =  1.0

     total cpu time spent up to now is        1.3 secs

     End of self-consistent calculation

          k = 0.0000 0.0000 0.0000 (   459 PWs)   bands (ev):

     6.7364  12.4436  12.4436  12.4436  14.2052  14.2052  34.2731  38.2434
    38.2434  38.2435

          k = 0.1179 0.1179-0.1179 (   459 PWs)   bands (ev):

     7.7265  12.1865  12.7287  12.7287  14.1456  14.1456  32.9836  35.3063
    38.9185  38.9185

          k = 0.2357 0.2357-0.2357 (   450 PWs)   bands (ev):

     9.3042  12.6149  12.6149  13.1827  14.9222  14.9222  26.0553  34.2901
    37.9558  37.9558

          k =-0.3536-0.3536 0.3536 (   464 PWs)   bands (ev):

     9.4533  12.3924  12.3924  15.6075  15.6075  16.2547  21.0920  33.3146
    36.4269  36.4269

          k = 0.2357 0.0000 0.0000 (   451 PWs)   bands (ev):

     8.0696  11.7634  13.1060  13.1060  13.5078  14.5227  35.5581  35.6020
    35.9909  35.9909

          k = 0.3536 0.1179-0.1179 (   453 PWs)   bands (ev):

     9.6908  11.5217  12.5847  13.3774  14.8552  15.1510  28.8213  34.1907
    34.8671  36.4678

          k =-0.2357-0.4714 0.4714 (   454 PWs)   bands (ev):

    10.1343  11.9597  13.0620  13.1448  15.6582  18.3152  22.1116  32.3093
    34.0846  35.0639

          k =-0.1179-0.3536 0.3536 (   446 PWs)   bands (ev):

    10.2381  12.1161  12.8651  13.0362  14.7391  17.3535  24.3809  31.1601
    35.1972  36.9772

          k = 0.0000-0.2357 0.2357 (   457 PWs)   bands (ev):

     9.1559  11.7806  12.7428  13.3159  13.5465  15.2593  30.5723  32.5765
    37.6588  38.6378

          k = 0.4714 0.0000 0.0000 (   444 PWs)   bands (ev):

     9.9597  10.5880  14.2499  14.7991  14.7991  15.1961  30.5990  30.9460
    30.9460  35.1566

          k =-0.1179-0.5893 0.5893 (   454 PWs)   bands (ev):

    10.1831  10.6758  13.8428  14.6621  15.7813  18.8472  24.6430  28.0023
    30.2544  36.4755

          k =-0.0000-0.4714 0.4714 (   444 PWs)   bands (ev):

    10.7456  11.6397  12.6450  14.0656  15.0985  20.2861  24.4749  25.2986
    32.9389  36.0275

          k =-0.7071 0.0000 0.0000 (   460 PWs)   bands (ev):

     9.7003  10.0692  15.5547  15.9878  15.9878  18.4363  23.9531  28.3579
    28.3579  35.6565

          k =-0.2357-0.4714 0.7071 (   452 PWs)   bands (ev):

    10.9316  11.2204  12.0752  14.3626  14.7890  17.5993  26.7791  28.5760
    32.0521  39.4924

          k =-0.1179-0.3536 0.5893 (   452 PWs)   bands (ev):

    11.1997  11.2926  12.3334  13.9002  15.5054  21.3057  21.9714  28.0908
    30.1043  38.8351

          k =-0.7071 0.2357 0.0000 (   444 PWs)   bands (ev):

    10.5366  10.8865  13.2420  14.5139  15.9896  22.0188  23.0619  26.3307
    27.7704  40.4509

     the Fermi energy is    17.6613 ev

!    total energy              =     -66.83673852 Ry
     estimated scf accuracy    <       0.00000011 Ry
     smearing contrib. (-TS)   =      -0.00004746 Ry
     internal energy E=F+TS    =     -66.83669106 Ry

     The total energy is F=E-TS. E is the sum of the following terms:
     one-electron contribution =      10.96502689 Ry
     hartree contribution      =       6.63712597 Ry
     xc contribution           =     -10.51389743 Ry
     ewald contribution        =     -73.92494649 Ry

     convergence has been achieved in   5 iterations

     Forces acting on atoms (cartesian axes, Ry/au):

     atom    1 type  1   force =     0.00000000    0.00000000    0.00000000

     Total force =     0.000000     Total SCF correction =     0.000000


     Computing stress (Cartesian axis) and pressure

          total   stress  (Ry/bohr**3)                   (kbar)     P=      163.62
   0.00111224   0.00000000  -0.00000000          163.62        0.00       -0.00
   0.00000000   0.00111224  -0.00000000            0.00      163.62       -0.00
  -0.00000000  -0.00000000   0.00111224           -0.00       -0.00      163.62


     Writing all to output data dir ./pwscf.save/ :
     XML data file, charge density, pseudopotentials, collected wavefunctions

     init_run     :      0.27s CPU      0.28s WALL (       1 calls)
     electrons    :      0.90s CPU      0.93s WALL (       1 calls)
     forces       :      0.03s CPU      0.03s WALL (       1 calls)
     stress       :      0.20s CPU      0.20s WALL (       1 calls)

     Called by init_run:
     wfcinit      :      0.04s CPU      0.04s WALL (       1 calls)
     potinit      :      0.02s CPU      0.02s WALL (       1 calls)
     hinit0       :      0.19s CPU      0.19s WALL (       1 calls)

     Called by electrons:
     c_bands      :      0.61s CPU      0.63s WALL (       6 calls)
     sum_band     :      0.20s CPU      0.20s WALL (       6 calls)
     v_of_rho     :      0.01s CPU      0.01s WALL (       6 calls)
     newd         :      0.10s CPU      0.10s WALL (       6 calls)
     mix_rho      :      0.00s CPU      0.00s WALL (       6 calls)

     Called by c_bands:
     init_us_2    :      0.02s CPU      0.02s WALL (     240 calls)
     cegterg      :      0.59s CPU      0.61s WALL (      96 calls)

     Called by *egterg:
     cdiaghg      :      0.03s CPU      0.03s WALL (     321 calls)
     h_psi        :      0.48s CPU      0.50s WALL (     353 calls)
     s_psi        :      0.02s CPU      0.02s WALL (     353 calls)
     g_psi        :      0.00s CPU      0.00s WALL (     241 calls)

     Called by h_psi:
     h_psi:calbec :      0.02s CPU      0.02s WALL (     353 calls)
     vloc_psi     :      0.44s CPU      0.46s WALL (     353 calls)
                                        0.00s GPU  (     353 calls)
     add_vuspsi   :      0.02s CPU      0.02s WALL (     353 calls)

     General routines
     calbec       :      0.05s CPU      0.05s WALL (     721 calls)
     fft          :      0.01s CPU      0.01s WALL (      40 calls)
     ffts         :      0.00s CPU      0.00s WALL (      12 calls)
     fftw         :      0.47s CPU      0.48s WALL (    5986 calls)
     interpolate  :      0.00s CPU      0.00s WALL (       6 calls)

     Parallel routines

     PWSCF        :      1.48s CPU      1.52s WALL


   This run was terminated on:  15:52: 4  15Mar2026            

=------------------------------------------------------------------------------=
   JOB DONE.
=------------------------------------------------------------------------------=
