
     Program PWSCF v.7.5 starts on 15Mar2026 at 15:55:13 

     This program is part of the open-source Quantum ESPRESSO suite
     for quantum simulation of materials; please cite
         "P. Giannozzi et al., J. Phys.:Condens. Matter 21 395502 (2009);
         "P. Giannozzi et al., J. Phys.:Condens. Matter 29 465901 (2017);
         "P. Giannozzi et al., J. Chem. Phys. 152 154105 (2020);
          URL http://www.quantum-espresso.org", 
     in publications or presentations arising from this work. More details at
     http://www.quantum-espresso.org/quote

     Parallel version (MPI), running on     1 processors

     MPI processes distributed on     1 nodes
     3389 MiB available memory on the printing compute node when the environment starts

     Reading input from espresso.pwi
Warning: card &CELL ignored
Warning: card &FCP ignored
Warning: card &RISM ignored

     Current dimensions of program PWSCF are:
     Max number of different atomic species (ntypx) = 10
     Max number of k-points (npk) =  40000
     Max angular momentum in pseudopotentials (lmaxx) =  4
     file Mg.pbe-spnl-kjpaw_psl.1.0.0.UPF: wavefunction(s)  2P renormalized
     Message from routine setup:
     using ibrav=0 with symmetry is DISCOURAGED, use correct ibrav instead

     Subspace diagonalization in iterative solution of the eigenvalue problem:
     a serial algorithm will be used


     G-vector sticks info
     --------------------
     sticks:   dense  smooth     PW     G-vecs:    dense   smooth      PW
     Sum         817     409    127                15353     5329     965

     Using Slab Decomposition



     bravais-lattice index     =            0
     lattice parameter (alat)  =       6.0660  a.u.
     unit-cell volume          =     157.8326 (a.u.)^3
     number of atoms/cell      =            1
     number of atomic types    =            1
     number of electrons       =        10.00
     number of Kohn-Sham states=            9
     kinetic-energy cutoff     =      40.0000  Ry
     charge density cutoff     =     320.0000  Ry
     scf convergence threshold =      1.0E-06
     mixing beta               =       0.7000
     number of iterations used =            8  plain     mixing
     Exchange-correlation= SLA  PW   PBX  PBC
                           (   1   4   3   4   0   0   0)

     celldm(1)=   6.066021  celldm(2)=   0.000000  celldm(3)=   0.000000
     celldm(4)=   0.000000  celldm(5)=   0.000000  celldm(6)=   0.000000

     crystal axes: (cart. coord. in units of alat)
               a(1) = (   0.000000   0.707107   0.707107 )  
               a(2) = (   0.707107   0.000000   0.707107 )  
               a(3) = (   0.707107   0.707107   0.000000 )  

     reciprocal axes: (cart. coord. in units 2 pi/alat)
               b(1) = ( -0.707107  0.707107  0.707107 )  
               b(2) = (  0.707107 -0.707107  0.707107 )  
               b(3) = (  0.707107  0.707107 -0.707107 )  


     PseudoPot. # 1 for Mg read from file:
     /home/kenobi/Workspaces/PHYS400/pseudopotentials/Mg.pbe-spnl-kjpaw_psl.1.0.0.UPF
     MD5 check sum: fda14e0d92a6a9a5ebed782e5a4b3067
     Pseudo is Projector augmented-wave + core cor, Zval = 10.0
     Generated using &quot;atomic&quot; code by A. Dal Corso  v.6.3
     Shape of augmentation charge: PSQ
     Using radial grid of 1129 points,  4 beta functions with: 
                l(1) =   0
                l(2) =   0
                l(3) =   1
                l(4) =   1
     Q(r) pseudized with 0 coefficients 


     atomic species   valence    mass     pseudopotential
     Mg               10.00    24.30500     Mg( 1.00)

     48 Sym. Ops., with inversion, found



   Cartesian axes

     site n.     atom                  positions (alat units)
         1        Mg     tau(   1) = (   0.0000000   0.0000000   0.0000000  )

     number of k points=    16  Marzari-Vanderbilt smearing, width (Ry)=  0.0200
                       cart. coord. in units 2pi/alat
        k(    1) = (   0.0000000   0.0000000   0.0000000), wk =   0.0092593
        k(    2) = (   0.1178511   0.1178511  -0.1178511), wk =   0.0740741
        k(    3) = (   0.2357023   0.2357023  -0.2357023), wk =   0.0740741
        k(    4) = (  -0.3535534  -0.3535534   0.3535534), wk =   0.0370370
        k(    5) = (   0.2357023   0.0000000   0.0000000), wk =   0.0555556
        k(    6) = (   0.3535534   0.1178511  -0.1178511), wk =   0.2222222
        k(    7) = (  -0.2357023  -0.4714045   0.4714045), wk =   0.2222222
        k(    8) = (  -0.1178511  -0.3535534   0.3535534), wk =   0.2222222
        k(    9) = (   0.0000000  -0.2357023   0.2357023), wk =   0.1111111
        k(   10) = (   0.4714045   0.0000000   0.0000000), wk =   0.0555556
        k(   11) = (  -0.1178511  -0.5892557   0.5892557), wk =   0.2222222
        k(   12) = (  -0.0000000  -0.4714045   0.4714045), wk =   0.1111111
        k(   13) = (  -0.7071068   0.0000000   0.0000000), wk =   0.0277778
        k(   14) = (  -0.2357023  -0.4714045   0.7071068), wk =   0.2222222
        k(   15) = (  -0.1178511  -0.3535534   0.5892557), wk =   0.2222222
        k(   16) = (  -0.7071068   0.2357023   0.0000000), wk =   0.1111111

     Dense  grid:    15353 G-vectors     FFT dimensions: (  36,  36,  36)

     Smooth grid:     5329 G-vectors     FFT dimensions: (  25,  25,  25)

     Estimated max dynamical RAM per process >      23.29 MB

     Check: negative core charge=   -0.000015

     Initial potential from superposition of free atoms

     starting charge       9.9991, renormalised to      10.0000
     Starting wfcs are    5 randomized atomic wfcs +    4 random wfcs
     Checking if some PAW data can be deallocated... 

     total cpu time spent up to now is        0.4 secs

     Self-consistent Calculation

     iteration #  1     ecut=    40.00 Ry     beta= 0.70
     Davidson diagonalization with overlap
     ethr =  1.00E-02,  avg # of iterations =  5.9

     Threshold (ethr) on eigenvalues was too large:
     Diagonalizing with lowered threshold

     Davidson diagonalization with overlap
     ethr =  6.05E-05,  avg # of iterations =  3.6

     total cpu time spent up to now is        0.9 secs

     total energy              =    -141.34964545 Ry
     estimated scf accuracy    <       0.00625155 Ry

     iteration #  2     ecut=    40.00 Ry     beta= 0.70
     Davidson diagonalization with overlap
     ethr =  6.25E-05,  avg # of iterations =  1.8

     total cpu time spent up to now is        1.1 secs

     total energy              =    -141.35020586 Ry
     estimated scf accuracy    <       0.00039045 Ry

     iteration #  3     ecut=    40.00 Ry     beta= 0.70
     Davidson diagonalization with overlap
     ethr =  3.90E-06,  avg # of iterations =  2.4

     total cpu time spent up to now is        1.3 secs

     total energy              =    -141.35023266 Ry
     estimated scf accuracy    <       0.00001580 Ry

     iteration #  4     ecut=    40.00 Ry     beta= 0.70
     Davidson diagonalization with overlap
     ethr =  1.58E-07,  avg # of iterations =  3.6

     total cpu time spent up to now is        1.6 secs

     End of self-consistent calculation

          k = 0.0000 0.0000 0.0000 (   645 PWs)   bands (ev):

   -71.1218 -37.7998 -37.7998 -37.7998  -1.5249  17.4646  17.4647  17.4647
    19.4421

          k = 0.1179 0.1179-0.1179 (   661 PWs)   bands (ev):

   -71.1213 -37.8272 -37.8121 -37.8121  -0.9278  12.7234  16.6620  16.6620
    18.9688

          k = 0.2357 0.2357-0.2357 (   658 PWs)   bands (ev):

   -71.1200 -37.8400 -37.8106 -37.8106   0.8704   7.8040  16.2001  16.2002
    18.4397

          k =-0.3536-0.3536 0.3536 (   652 PWs)   bands (ev):

   -71.1193 -37.8574 -37.7982 -37.7982   3.5752   4.0490  16.3903  16.3906
    17.2512

          k = 0.2357 0.0000 0.0000 (   673 PWs)   bands (ev):

   -71.1211 -37.8290 -37.8290 -37.8259  -0.7356  14.4358  14.8266  14.8266
    16.9466

          k = 0.3536 0.1179-0.1179 (   675 PWs)   bands (ev):

   -71.1201 -37.8414 -37.8316 -37.8297   0.6628   9.7889  13.9901  14.1380
    15.3409

          k =-0.2357-0.4714 0.4714 (   678 PWs)   bands (ev):

   -71.1192 -37.8628 -37.8335 -37.8273   3.1920   5.5388  12.3632  14.1726
    15.4709

          k =-0.1179-0.3536 0.3536 (   677 PWs)   bands (ev):

   -71.1194 -37.8563 -37.8356 -37.8259   2.2325   6.8323  11.5281  15.3852
    16.7743

          k = 0.0000-0.2357 0.2357 (   662 PWs)   bands (ev):

   -71.1204 -37.8276 -37.8242 -37.8145   0.0726  10.9309  12.2703  17.6476
    19.0397

          k = 0.4714 0.0000 0.0000 (   680 PWs)   bands (ev):

   -71.1194 -37.8551 -37.8344 -37.8344   1.6473  10.8212  12.0742  12.7966
    12.7966

          k =-0.1179-0.5893 0.5893 (   674 PWs)   bands (ev):

   -71.1188 -37.8554 -37.8349 -37.8320   3.7593   8.0605   8.7457  12.6322
    13.5972

          k =-0.0000-0.4714 0.4714 (   680 PWs)   bands (ev):

   -71.1188 -37.8555 -37.8520 -37.8306   4.7015   6.4973   7.7884  13.4928
    14.6873

          k =-0.7071 0.0000 0.0000 (   692 PWs)   bands (ev):

   -71.1187 -37.8773 -37.8434 -37.8434   5.0271   6.0719  11.2783  12.1146
    12.1146

          k =-0.2357-0.4714 0.7071 (   670 PWs)   bands (ev):

   -71.1192 -37.8477 -37.8347 -37.8249   2.4284   8.7075   9.9410  11.9153
    17.6568

          k =-0.1179-0.3536 0.5893 (   682 PWs)   bands (ev):

   -71.1188 -37.8638 -37.8457 -37.8313   5.0547   5.5286   9.5998  10.6387
    18.8800

          k =-0.7071 0.2357 0.0000 (   682 PWs)   bands (ev):

   -71.1186 -37.8610 -37.8413 -37.8410   5.7622   6.7671   7.9664   9.5954
    16.9424

     the Fermi energy is     5.3853 ev

!    total energy              =    -141.35023672 Ry
     total all-electron energy =      -400.620505 Ry
     estimated scf accuracy    <       0.00000017 Ry
     smearing contrib. (-TS)   =      -0.00009823 Ry
     internal energy E=F+TS    =    -141.35013849 Ry

     The total energy is F=E-TS. E is the sum of the following terms:
     one-electron contribution =    -106.68969054 Ry
     hartree contribution      =      51.24421374 Ry
     xc contribution           =     -17.50398441 Ry
     ewald contribution        =     -53.44503651 Ry
     one-center paw contrib.   =     -14.95564076 Ry

     convergence has been achieved in   4 iterations

     Forces acting on atoms (cartesian axes, Ry/au):

     atom    1 type  1   force =     0.00000000    0.00000000    0.00000000

     Total force =     0.000000     Total SCF correction =     0.000000


     Computing stress (Cartesian axis) and pressure

          total   stress  (Ry/bohr**3)                   (kbar)     P=     -262.94
  -0.00178745   0.00000000   0.00000000         -262.94        0.00        0.00
   0.00000000  -0.00178745   0.00000000            0.00     -262.94        0.00
   0.00000000   0.00000000  -0.00178745            0.00        0.00     -262.94


     Writing all to output data dir ./pwscf.save/ :
     XML data file, charge density, pseudopotentials, collected wavefunctions

     init_run     :      0.29s CPU      0.29s WALL (       1 calls)
     electrons    :      1.17s CPU      1.19s WALL (       1 calls)
     forces       :      0.03s CPU      0.03s WALL (       1 calls)
     stress       :      0.12s CPU      0.12s WALL (       1 calls)

     Called by init_run:
     wfcinit      :      0.06s CPU      0.06s WALL (       1 calls)
     potinit      :      0.07s CPU      0.08s WALL (       1 calls)
     hinit0       :      0.14s CPU      0.14s WALL (       1 calls)

     Called by electrons:
     c_bands      :      0.77s CPU      0.78s WALL (       5 calls)
     sum_band     :      0.16s CPU      0.17s WALL (       5 calls)
     v_of_rho     :      0.08s CPU      0.08s WALL (       5 calls)
     newd         :      0.04s CPU      0.04s WALL (       5 calls)
     PAW_pot      :      0.17s CPU      0.18s WALL (       5 calls)
     mix_rho      :      0.00s CPU      0.00s WALL (       5 calls)

     Called by c_bands:
     init_us_2    :      0.01s CPU      0.01s WALL (     208 calls)
     cegterg      :      0.76s CPU      0.77s WALL (      80 calls)

     Called by *egterg:
     cdiaghg      :      0.02s CPU      0.02s WALL (     340 calls)
     h_psi        :      0.66s CPU      0.66s WALL (     372 calls)
     s_psi        :      0.01s CPU      0.01s WALL (     372 calls)
     g_psi        :      0.00s CPU      0.00s WALL (     276 calls)

     Called by h_psi:
     h_psi:calbec :      0.02s CPU      0.02s WALL (     372 calls)
     vloc_psi     :      0.63s CPU      0.63s WALL (     372 calls)
                                        0.00s GPU  (     372 calls)
     add_vuspsi   :      0.01s CPU      0.01s WALL (     372 calls)

     General routines
     calbec       :      0.04s CPU      0.04s WALL (     724 calls)
     fft          :      0.04s CPU      0.04s WALL (      89 calls)
     ffts         :      0.00s CPU      0.00s WALL (      10 calls)
     fftw         :      0.69s CPU      0.70s WALL (    4798 calls)
     interpolate  :      0.00s CPU      0.00s WALL (       5 calls)

     Parallel routines

     PWSCF        :      1.70s CPU      1.72s WALL


   This run was terminated on:  15:55:15  15Mar2026            

=------------------------------------------------------------------------------=
   JOB DONE.
=------------------------------------------------------------------------------=
