
     Program PWSCF v.7.5 starts on 15Mar2026 at 15:55:16 

     This program is part of the open-source Quantum ESPRESSO suite
     for quantum simulation of materials; please cite
         "P. Giannozzi et al., J. Phys.:Condens. Matter 21 395502 (2009);
         "P. Giannozzi et al., J. Phys.:Condens. Matter 29 465901 (2017);
         "P. Giannozzi et al., J. Chem. Phys. 152 154105 (2020);
          URL http://www.quantum-espresso.org", 
     in publications or presentations arising from this work. More details at
     http://www.quantum-espresso.org/quote

     Parallel version (MPI), running on     1 processors

     MPI processes distributed on     1 nodes
     3404 MiB available memory on the printing compute node when the environment starts

     Reading input from espresso.pwi
Warning: card &CELL ignored
Warning: card &FCP ignored
Warning: card &RISM ignored

     Current dimensions of program PWSCF are:
     Max number of different atomic species (ntypx) = 10
     Max number of k-points (npk) =  40000
     Max angular momentum in pseudopotentials (lmaxx) =  4
     file Mg.pbe-spnl-kjpaw_psl.1.0.0.UPF: wavefunction(s)  2P renormalized
     Message from routine setup:
     using ibrav=0 with symmetry is DISCOURAGED, use correct ibrav instead

     Subspace diagonalization in iterative solution of the eigenvalue problem:
     a serial algorithm will be used


     G-vector sticks info
     --------------------
     sticks:   dense  smooth     PW     G-vecs:    dense   smooth      PW
     Sum         847     421    139                16049     5601    1037

     Using Slab Decomposition



     bravais-lattice index     =            0
     lattice parameter (alat)  =       6.1469  a.u.
     unit-cell volume          =     164.2305 (a.u.)^3
     number of atoms/cell      =            1
     number of atomic types    =            1
     number of electrons       =        10.00
     number of Kohn-Sham states=            9
     kinetic-energy cutoff     =      40.0000  Ry
     charge density cutoff     =     320.0000  Ry
     scf convergence threshold =      1.0E-06
     mixing beta               =       0.7000
     number of iterations used =            8  plain     mixing
     Exchange-correlation= SLA  PW   PBX  PBC
                           (   1   4   3   4   0   0   0)

     celldm(1)=   6.146901  celldm(2)=   0.000000  celldm(3)=   0.000000
     celldm(4)=   0.000000  celldm(5)=   0.000000  celldm(6)=   0.000000

     crystal axes: (cart. coord. in units of alat)
               a(1) = (   0.000000   0.707107   0.707107 )  
               a(2) = (   0.707107   0.000000   0.707107 )  
               a(3) = (   0.707107   0.707107   0.000000 )  

     reciprocal axes: (cart. coord. in units 2 pi/alat)
               b(1) = ( -0.707107  0.707107  0.707107 )  
               b(2) = (  0.707107 -0.707107  0.707107 )  
               b(3) = (  0.707107  0.707107 -0.707107 )  


     PseudoPot. # 1 for Mg read from file:
     /home/kenobi/Workspaces/PHYS400/pseudopotentials/Mg.pbe-spnl-kjpaw_psl.1.0.0.UPF
     MD5 check sum: fda14e0d92a6a9a5ebed782e5a4b3067
     Pseudo is Projector augmented-wave + core cor, Zval = 10.0
     Generated using &quot;atomic&quot; code by A. Dal Corso  v.6.3
     Shape of augmentation charge: PSQ
     Using radial grid of 1129 points,  4 beta functions with: 
                l(1) =   0
                l(2) =   0
                l(3) =   1
                l(4) =   1
     Q(r) pseudized with 0 coefficients 


     atomic species   valence    mass     pseudopotential
     Mg               10.00    24.30500     Mg( 1.00)

     48 Sym. Ops., with inversion, found



   Cartesian axes

     site n.     atom                  positions (alat units)
         1        Mg     tau(   1) = (   0.0000000   0.0000000   0.0000000  )

     number of k points=    16  Marzari-Vanderbilt smearing, width (Ry)=  0.0200
                       cart. coord. in units 2pi/alat
        k(    1) = (   0.0000000   0.0000000   0.0000000), wk =   0.0092593
        k(    2) = (   0.1178511   0.1178511  -0.1178511), wk =   0.0740741
        k(    3) = (   0.2357023   0.2357023  -0.2357023), wk =   0.0740741
        k(    4) = (  -0.3535534  -0.3535534   0.3535534), wk =   0.0370370
        k(    5) = (   0.2357023   0.0000000   0.0000000), wk =   0.0555556
        k(    6) = (   0.3535534   0.1178511  -0.1178511), wk =   0.2222222
        k(    7) = (  -0.2357023  -0.4714045   0.4714045), wk =   0.2222222
        k(    8) = (  -0.1178511  -0.3535534   0.3535534), wk =   0.2222222
        k(    9) = (   0.0000000  -0.2357023   0.2357023), wk =   0.1111111
        k(   10) = (   0.4714045   0.0000000   0.0000000), wk =   0.0555556
        k(   11) = (  -0.1178511  -0.5892557   0.5892557), wk =   0.2222222
        k(   12) = (  -0.0000000  -0.4714045   0.4714045), wk =   0.1111111
        k(   13) = (  -0.7071068   0.0000000   0.0000000), wk =   0.0277778
        k(   14) = (  -0.2357023  -0.4714045   0.7071068), wk =   0.2222222
        k(   15) = (  -0.1178511  -0.3535534   0.5892557), wk =   0.2222222
        k(   16) = (  -0.7071068   0.2357023   0.0000000), wk =   0.1111111

     Dense  grid:    16049 G-vectors     FFT dimensions: (  36,  36,  36)

     Smooth grid:     5601 G-vectors     FFT dimensions: (  25,  25,  25)

     Estimated max dynamical RAM per process >      24.18 MB

     Check: negative core charge=   -0.000014

     Initial potential from superposition of free atoms

     starting charge       9.9991, renormalised to      10.0000
     Starting wfcs are    5 randomized atomic wfcs +    4 random wfcs
     Checking if some PAW data can be deallocated... 

     total cpu time spent up to now is        0.4 secs

     Self-consistent Calculation

     iteration #  1     ecut=    40.00 Ry     beta= 0.70
     Davidson diagonalization with overlap
     ethr =  1.00E-02,  avg # of iterations =  5.6

     Threshold (ethr) on eigenvalues was too large:
     Diagonalizing with lowered threshold

     Davidson diagonalization with overlap
     ethr =  6.20E-05,  avg # of iterations =  4.0

     total cpu time spent up to now is        0.9 secs

     total energy              =    -141.34911291 Ry
     estimated scf accuracy    <       0.00647021 Ry

     iteration #  2     ecut=    40.00 Ry     beta= 0.70
     Davidson diagonalization with overlap
     ethr =  6.47E-05,  avg # of iterations =  1.6

     total cpu time spent up to now is        1.1 secs

     total energy              =    -141.34967948 Ry
     estimated scf accuracy    <       0.00040259 Ry

     iteration #  3     ecut=    40.00 Ry     beta= 0.70
     Davidson diagonalization with overlap
     ethr =  4.03E-06,  avg # of iterations =  4.1

     total cpu time spent up to now is        1.4 secs

     total energy              =    -141.34970735 Ry
     estimated scf accuracy    <       0.00001612 Ry

     iteration #  4     ecut=    40.00 Ry     beta= 0.70
     Davidson diagonalization with overlap
     ethr =  1.61E-07,  avg # of iterations =  3.9

     total cpu time spent up to now is        1.6 secs

     End of self-consistent calculation

          k = 0.0000 0.0000 0.0000 (   725 PWs)   bands (ev):

   -71.4878 -38.2073 -38.2073 -38.2073  -1.6978  16.9149  16.9150  16.9150
    18.6471

          k = 0.1179 0.1179-0.1179 (   703 PWs)   bands (ev):

   -71.4872 -38.1941 -38.1941 -38.1936  -1.0930  12.2476  16.0821  16.0821
    18.3213

          k = 0.2357 0.2357-0.2357 (   697 PWs)   bands (ev):

   -71.4861 -38.2112 -38.1858 -38.1858   0.6631   7.4320  15.6332  15.6332
    17.7697

          k =-0.3536-0.3536 0.3536 (   700 PWs)   bands (ev):

   -71.4856 -38.2264 -38.1876 -38.1876   3.3340   3.7214  15.8745  15.8745
    16.5345

          k = 0.2357 0.0000 0.0000 (   693 PWs)   bands (ev):

   -71.4870 -38.1918 -38.1918 -38.1823  -0.8908  13.9738  14.2771  14.2771
    16.4125

          k = 0.3536 0.1179-0.1179 (   700 PWs)   bands (ev):

   -71.4861 -38.2098 -38.1921 -38.1916   0.4694   9.3802  13.4541  13.6692
    14.7326

          k =-0.2357-0.4714 0.4714 (   698 PWs)   bands (ev):

   -71.4854 -38.2197 -38.1932 -38.1919   2.9438   5.2234  11.8961  13.6320
    14.8792

          k =-0.1179-0.3536 0.3536 (   703 PWs)   bands (ev):

   -71.4856 -38.2199 -38.2002 -38.1906   2.0036   6.4863  11.0627  14.8238
    16.1529

          k = 0.0000-0.2357 0.2357 (   710 PWs)   bands (ev):

   -71.4866 -38.2128 -38.2002 -38.1934  -0.1180  10.5114  11.7501  17.0320
    18.4030

          k = 0.4714 0.0000 0.0000 (   697 PWs)   bands (ev):

   -71.4856 -38.2104 -38.1944 -38.1944   1.4304  10.4043  11.6753  12.2814
    12.2814

          k =-0.1179-0.5893 0.5893 (   700 PWs)   bands (ev):

   -71.4851 -38.2221 -38.1998 -38.1955   3.4943   7.7202   8.3225  12.1179
    13.0670

          k =-0.0000-0.4714 0.4714 (   702 PWs)   bands (ev):

   -71.4851 -38.2178 -38.2155 -38.1907   4.4216   6.1768   7.3907  12.9651
    14.1237

          k =-0.7071 0.0000 0.0000 (   692 PWs)   bands (ev):

   -71.4849 -38.2244 -38.1885 -38.1885   4.7433   5.7572  10.9005  11.6199
    11.6200

          k =-0.2357-0.4714 0.7071 (   709 PWs)   bands (ev):

   -71.4855 -38.2186 -38.2075 -38.2019   2.1879   8.3370   9.5079  11.3887
    17.0674

          k =-0.1179-0.3536 0.5893 (   702 PWs)   bands (ev):

   -71.4851 -38.2208 -38.2059 -38.1969   4.7838   5.1996   9.2253  10.1220
    18.2081

          k =-0.7071 0.2357 0.0000 (   708 PWs)   bands (ev):

   -71.4849 -38.2271 -38.2094 -38.2042   5.4566   6.4400   7.6142   9.0927
    16.3676

     the Fermi energy is     5.0734 ev

!    total energy              =    -141.34971218 Ry
     total all-electron energy =      -400.619981 Ry
     estimated scf accuracy    <       0.00000021 Ry
     smearing contrib. (-TS)   =      -0.00027557 Ry
     internal energy E=F+TS    =    -141.34943661 Ry

     The total energy is F=E-TS. E is the sum of the following terms:
     one-electron contribution =    -107.85446345 Ry
     hartree contribution      =      51.69324047 Ry
     xc contribution           =     -17.49077443 Ry
     ewald contribution        =     -52.74181235 Ry
     one-center paw contrib.   =     -14.95562685 Ry

     convergence has been achieved in   4 iterations

     Forces acting on atoms (cartesian axes, Ry/au):

     atom    1 type  1   force =     0.00000000    0.00000000    0.00000000

     Total force =     0.000000     Total SCF correction =     0.000000


     Computing stress (Cartesian axis) and pressure

          total   stress  (Ry/bohr**3)                   (kbar)     P=     -263.72
  -0.00179274   0.00000000   0.00000000         -263.72        0.00        0.00
   0.00000000  -0.00179274   0.00000000            0.00     -263.72        0.00
   0.00000000   0.00000000  -0.00179274            0.00        0.00     -263.72


     Writing all to output data dir ./pwscf.save/ :
     XML data file, charge density, pseudopotentials, collected wavefunctions

     init_run     :      0.28s CPU      0.30s WALL (       1 calls)
     electrons    :      1.24s CPU      1.25s WALL (       1 calls)
     forces       :      0.03s CPU      0.03s WALL (       1 calls)
     stress       :      0.12s CPU      0.12s WALL (       1 calls)

     Called by init_run:
     wfcinit      :      0.06s CPU      0.06s WALL (       1 calls)
     potinit      :      0.07s CPU      0.08s WALL (       1 calls)
     hinit0       :      0.14s CPU      0.14s WALL (       1 calls)

     Called by electrons:
     c_bands      :      0.84s CPU      0.84s WALL (       5 calls)
     sum_band     :      0.17s CPU      0.18s WALL (       5 calls)
     v_of_rho     :      0.08s CPU      0.08s WALL (       5 calls)
     newd         :      0.04s CPU      0.04s WALL (       5 calls)
     PAW_pot      :      0.17s CPU      0.18s WALL (       5 calls)
     mix_rho      :      0.00s CPU      0.00s WALL (       5 calls)

     Called by c_bands:
     init_us_2    :      0.02s CPU      0.02s WALL (     208 calls)
     cegterg      :      0.82s CPU      0.83s WALL (      80 calls)

     Called by *egterg:
     cdiaghg      :      0.02s CPU      0.02s WALL (     371 calls)
     h_psi        :      0.71s CPU      0.71s WALL (     403 calls)
     s_psi        :      0.01s CPU      0.01s WALL (     403 calls)
     g_psi        :      0.00s CPU      0.00s WALL (     307 calls)

     Called by h_psi:
     h_psi:calbec :      0.02s CPU      0.02s WALL (     403 calls)
     vloc_psi     :      0.68s CPU      0.68s WALL (     403 calls)
                                        0.00s GPU  (     403 calls)
     add_vuspsi   :      0.01s CPU      0.01s WALL (     403 calls)

     General routines
     calbec       :      0.04s CPU      0.04s WALL (     755 calls)
     fft          :      0.04s CPU      0.04s WALL (      89 calls)
     ffts         :      0.00s CPU      0.00s WALL (      10 calls)
     fftw         :      0.74s CPU      0.74s WALL (    4898 calls)
     interpolate  :      0.00s CPU      0.00s WALL (       5 calls)

     Parallel routines

     PWSCF        :      1.77s CPU      1.80s WALL


   This run was terminated on:  15:55:17  15Mar2026            

=------------------------------------------------------------------------------=
   JOB DONE.
=------------------------------------------------------------------------------=
