
     Program PWSCF v.7.5 starts on 15Mar2026 at 15:52:14 

     This program is part of the open-source Quantum ESPRESSO suite
     for quantum simulation of materials; please cite
         "P. Giannozzi et al., J. Phys.:Condens. Matter 21 395502 (2009);
         "P. Giannozzi et al., J. Phys.:Condens. Matter 29 465901 (2017);
         "P. Giannozzi et al., J. Chem. Phys. 152 154105 (2020);
          URL http://www.quantum-espresso.org", 
     in publications or presentations arising from this work. More details at
     http://www.quantum-espresso.org/quote

     Parallel version (MPI), running on     1 processors

     MPI processes distributed on     1 nodes
     3497 MiB available memory on the printing compute node when the environment starts

     Reading input from espresso.pwi
Warning: card &CELL ignored
Warning: card &FCP ignored
Warning: card &RISM ignored

     Current dimensions of program PWSCF are:
     Max number of different atomic species (ntypx) = 10
     Max number of k-points (npk) =  40000
     Max angular momentum in pseudopotentials (lmaxx) =  4
     Message from routine setup:
     using ibrav=0 with symmetry is DISCOURAGED, use correct ibrav instead

     Subspace diagonalization in iterative solution of the eigenvalue problem:
     a serial algorithm will be used


     G-vector sticks info
     --------------------
     sticks:   dense  smooth     PW     G-vecs:    dense   smooth      PW
     Sum         703     361    121                12387     4477     869

     Using Slab Decomposition



     bravais-lattice index     =            0
     lattice parameter (alat)  =       5.6699  a.u.
     unit-cell volume          =     128.8894 (a.u.)^3
     number of atoms/cell      =            1
     number of atomic types    =            1
     number of electrons       =        11.00
     number of Kohn-Sham states=           10
     kinetic-energy cutoff     =      40.0000  Ry
     charge density cutoff     =     320.0000  Ry
     scf convergence threshold =      1.0E-06
     mixing beta               =       0.7000
     number of iterations used =            8  plain     mixing
     Exchange-correlation= LDA
                           (   1   1   0   0   0   0   0)

     celldm(1)=   5.669926  celldm(2)=   0.000000  celldm(3)=   0.000000
     celldm(4)=   0.000000  celldm(5)=   0.000000  celldm(6)=   0.000000

     crystal axes: (cart. coord. in units of alat)
               a(1) = (   0.000000   0.707107   0.707107 )  
               a(2) = (   0.707107   0.000000   0.707107 )  
               a(3) = (   0.707107   0.707107   0.000000 )  

     reciprocal axes: (cart. coord. in units 2 pi/alat)
               b(1) = ( -0.707107  0.707107  0.707107 )  
               b(2) = (  0.707107 -0.707107  0.707107 )  
               b(3) = (  0.707107  0.707107 -0.707107 )  


     PseudoPot. # 1 for Au read from file:
     /home/kenobi/Workspaces/PHYS400/pseudopotentials/Au.pz-rrkjus_aewfc.UPF
     MD5 check sum: a6a73ca633fd0b71782ee3cea1e65e2b
     Pseudo is Ultrasoft, Zval = 11.0
     Generated using "atomic" code by A. Dal Corso  (Quantum ESPRESSO distribution)
     Using radial grid of 1279 points,  3 beta functions with: 
                l(1) =   1
                l(2) =   2
                l(3) =   2
     Q(r) pseudized with 0 coefficients 


     atomic species   valence    mass     pseudopotential
     Au               11.00   196.96657     Au( 1.00)

     48 Sym. Ops., with inversion, found



   Cartesian axes

     site n.     atom                  positions (alat units)
         1        Au     tau(   1) = (   0.0000000   0.0000000   0.0000000  )

     number of k points=    16  Marzari-Vanderbilt smearing, width (Ry)=  0.0200
                       cart. coord. in units 2pi/alat
        k(    1) = (   0.0000000   0.0000000   0.0000000), wk =   0.0092593
        k(    2) = (   0.1178511   0.1178511  -0.1178511), wk =   0.0740741
        k(    3) = (   0.2357023   0.2357023  -0.2357023), wk =   0.0740741
        k(    4) = (  -0.3535534  -0.3535534   0.3535534), wk =   0.0370370
        k(    5) = (   0.2357023   0.0000000   0.0000000), wk =   0.0555556
        k(    6) = (   0.3535534   0.1178511  -0.1178511), wk =   0.2222222
        k(    7) = (  -0.2357023  -0.4714045   0.4714045), wk =   0.2222222
        k(    8) = (  -0.1178511  -0.3535534   0.3535534), wk =   0.2222222
        k(    9) = (   0.0000000  -0.2357023   0.2357023), wk =   0.1111111
        k(   10) = (   0.4714045   0.0000000   0.0000000), wk =   0.0555556
        k(   11) = (  -0.1178511  -0.5892557   0.5892557), wk =   0.2222222
        k(   12) = (  -0.0000000  -0.4714045   0.4714045), wk =   0.1111111
        k(   13) = (  -0.7071068   0.0000000   0.0000000), wk =   0.0277778
        k(   14) = (  -0.2357023  -0.4714045   0.7071068), wk =   0.2222222
        k(   15) = (  -0.1178511  -0.3535534   0.5892557), wk =   0.2222222
        k(   16) = (  -0.7071068   0.2357023   0.0000000), wk =   0.1111111

     Dense  grid:    12387 G-vectors     FFT dimensions: (  36,  36,  36)

     Smooth grid:     4477 G-vectors     FFT dimensions: (  24,  24,  24)

     Estimated max dynamical RAM per process >      33.11 MB

     Initial potential from superposition of free atoms

     starting charge      10.9999, renormalised to      11.0000
     Starting wfcs are    9 randomized atomic wfcs +    1 random wfcs

     total cpu time spent up to now is        0.4 secs

     Self-consistent Calculation

     iteration #  1     ecut=    40.00 Ry     beta= 0.70
     Davidson diagonalization with overlap
     ethr =  1.00E-02,  avg # of iterations =  5.1

     Threshold (ethr) on eigenvalues was too large:
     Diagonalizing with lowered threshold

     Davidson diagonalization with overlap
     ethr =  6.89E-04,  avg # of iterations =  1.3

     total cpu time spent up to now is        0.7 secs

     total energy              =     -66.80197886 Ry
     estimated scf accuracy    <       0.07721205 Ry

     iteration #  2     ecut=    40.00 Ry     beta= 0.70
     Davidson diagonalization with overlap
     ethr =  7.02E-04,  avg # of iterations =  2.3

     total cpu time spent up to now is        0.9 secs

     total energy              =     -66.82420975 Ry
     estimated scf accuracy    <       0.03319042 Ry

     iteration #  3     ecut=    40.00 Ry     beta= 0.70
     Davidson diagonalization with overlap
     ethr =  3.02E-04,  avg # of iterations =  2.1

     total cpu time spent up to now is        1.1 secs

     total energy              =     -66.83091406 Ry
     estimated scf accuracy    <       0.00005361 Ry

     iteration #  4     ecut=    40.00 Ry     beta= 0.70
     Davidson diagonalization with overlap
     ethr =  4.87E-07,  avg # of iterations =  3.0

     total cpu time spent up to now is        1.2 secs

     total energy              =     -66.83094031 Ry
     estimated scf accuracy    <       0.00000111 Ry

     iteration #  5     ecut=    40.00 Ry     beta= 0.70
     Davidson diagonalization with overlap
     ethr =  1.01E-08,  avg # of iterations =  1.4

     total cpu time spent up to now is        1.4 secs

     End of self-consistent calculation

          k = 0.0000 0.0000 0.0000 (   537 PWs)   bands (ev):

     4.3005   8.9777   8.9777   8.9777  10.2186  10.2186  29.2671  32.0022
    32.0022  32.0022

          k = 0.1179 0.1179-0.1179 (   552 PWs)   bands (ev):

     5.1338   8.8120   9.1851   9.1851  10.1864  10.1864  26.8782  29.9960
    32.1469  32.1469

          k = 0.2357 0.2357-0.2357 (   555 PWs)   bands (ev):

     6.5502   9.1091   9.1091   9.6814  10.7387  10.7387  20.2999  29.1490
    30.9661  30.9661

          k =-0.3536-0.3536 0.3536 (   568 PWs)   bands (ev):

     6.7296   8.9518   8.9518  11.2100  11.2100  12.6440  15.5265  28.3915
    29.8485  29.8485

          k = 0.2357 0.0000 0.0000 (   556 PWs)   bands (ev):

     5.4227   8.5030   9.4592   9.4592   9.7506  10.4443  29.4205  29.4205
    29.5958  29.9533

          k = 0.3536 0.1179-0.1179 (   556 PWs)   bands (ev):

     6.8387   8.3461   9.1031   9.6562  10.7618  10.8913  22.8593  27.7601
    28.8955  29.7228

          k =-0.2357-0.4714 0.4714 (   556 PWs)   bands (ev):

     7.2680   8.6732   9.4357   9.5881  11.2448  13.7030  16.7844  26.1553
    27.7180  29.1894

          k =-0.1179-0.3536 0.3536 (   549 PWs)   bands (ev):

     7.3303   8.7714   9.4084   9.4179  10.6149  12.7043  18.8251  25.0150
    29.5954  30.0873

          k = 0.0000-0.2357 0.2357 (   554 PWs)   bands (ev):

     6.3505   8.5273   9.2179   9.6072   9.7773  10.9911  24.5511  26.2113
    31.6706  32.7681

          k = 0.4714 0.0000 0.0000 (   556 PWs)   bands (ev):

     7.1479   7.6565  10.4824  10.6654  10.6654  10.9178  24.0303  25.0686
    25.0686  28.8594

          k =-0.1179-0.5893 0.5893 (   548 PWs)   bands (ev):

     7.3609   7.7336  10.0736  10.5659  11.3301  14.1159  19.1685  22.1309
    24.5157  29.8572

          k =-0.0000-0.4714 0.4714 (   544 PWs)   bands (ev):

     7.7646   8.4790   9.1886  10.1556  10.8633  15.2564  19.0875  19.5975
    26.6644  29.7876

          k =-0.7071 0.0000 0.0000 (   556 PWs)   bands (ev):

     7.0088   7.2741  11.1669  11.4750  11.4750  14.4395  17.8695  23.0291
    23.0291  29.0215

          k =-0.2357-0.4714 0.7071 (   549 PWs)   bands (ev):

     7.9088   8.1246   8.7434  10.3841  10.6553  12.8944  21.0492  22.7039
    25.8804  32.7971

          k =-0.1179-0.3536 0.5893 (   552 PWs)   bands (ev):

     8.0979   8.2099   8.9658  10.0433  11.1477  15.9245  17.0332  22.1704
    24.1702  32.4844

          k =-0.7071 0.2357 0.0000 (   548 PWs)   bands (ev):

     7.6505   7.8791   9.6259  10.4720  11.4761  17.1215  17.3230  20.9434
    22.0681  33.3696

     the Fermi energy is    12.9676 ev

!    total energy              =     -66.83094035 Ry
     estimated scf accuracy    <       0.00000006 Ry
     smearing contrib. (-TS)   =      -0.00009645 Ry
     internal energy E=F+TS    =     -66.83084390 Ry

     The total energy is F=E-TS. E is the sum of the following terms:
     one-electron contribution =       4.29536652 Ry
     hartree contribution      =       8.40997337 Ry
     xc contribution           =     -10.35001592 Ry
     ewald contribution        =     -69.18616787 Ry

     convergence has been achieved in   5 iterations

     Forces acting on atoms (cartesian axes, Ry/au):

     atom    1 type  1   force =     0.00000000    0.00000000    0.00000000

     Total force =     0.000000     Total SCF correction =     0.000000


     Computing stress (Cartesian axis) and pressure

          total   stress  (Ry/bohr**3)                   (kbar)     P=     -167.84
  -0.00114096   0.00000000   0.00000000         -167.84        0.00        0.00
   0.00000000  -0.00114096   0.00000000            0.00     -167.84        0.00
   0.00000000   0.00000000  -0.00114096            0.00        0.00     -167.84


     Writing all to output data dir ./pwscf.save/ :
     XML data file, charge density, pseudopotentials, collected wavefunctions

     init_run     :      0.28s CPU      0.29s WALL (       1 calls)
     electrons    :      1.01s CPU      1.03s WALL (       1 calls)
     forces       :      0.04s CPU      0.04s WALL (       1 calls)
     stress       :      0.25s CPU      0.26s WALL (       1 calls)

     Called by init_run:
     wfcinit      :      0.04s CPU      0.04s WALL (       1 calls)
     potinit      :      0.02s CPU      0.02s WALL (       1 calls)
     hinit0       :      0.19s CPU      0.19s WALL (       1 calls)

     Called by electrons:
     c_bands      :      0.64s CPU      0.65s WALL (       6 calls)
     sum_band     :      0.24s CPU      0.24s WALL (       6 calls)
     v_of_rho     :      0.01s CPU      0.02s WALL (       6 calls)
     newd         :      0.12s CPU      0.13s WALL (       6 calls)
     mix_rho      :      0.01s CPU      0.01s WALL (       6 calls)

     Called by c_bands:
     init_us_2    :      0.02s CPU      0.02s WALL (     240 calls)
     cegterg      :      0.62s CPU      0.63s WALL (      96 calls)

     Called by *egterg:
     cdiaghg      :      0.03s CPU      0.03s WALL (     325 calls)
     h_psi        :      0.49s CPU      0.50s WALL (     357 calls)
     s_psi        :      0.02s CPU      0.02s WALL (     357 calls)
     g_psi        :      0.00s CPU      0.00s WALL (     245 calls)

     Called by h_psi:
     h_psi:calbec :      0.03s CPU      0.03s WALL (     357 calls)
     vloc_psi     :      0.44s CPU      0.45s WALL (     357 calls)
                                        0.00s GPU  (     357 calls)
     add_vuspsi   :      0.02s CPU      0.02s WALL (     357 calls)

     General routines
     calbec       :      0.07s CPU      0.07s WALL (     725 calls)
     fft          :      0.02s CPU      0.02s WALL (      40 calls)
     ffts         :      0.00s CPU      0.00s WALL (      12 calls)
     fftw         :      0.48s CPU      0.48s WALL (    5940 calls)
     interpolate  :      0.00s CPU      0.00s WALL (       6 calls)

     Parallel routines

     PWSCF        :      1.65s CPU      1.69s WALL


   This run was terminated on:  15:52:15  15Mar2026            

=------------------------------------------------------------------------------=
   JOB DONE.
=------------------------------------------------------------------------------=
