
     Program PWSCF v.7.5 starts on 15Mar2026 at 16:10: 6 

     This program is part of the open-source Quantum ESPRESSO suite
     for quantum simulation of materials; please cite
         "P. Giannozzi et al., J. Phys.:Condens. Matter 21 395502 (2009);
         "P. Giannozzi et al., J. Phys.:Condens. Matter 29 465901 (2017);
         "P. Giannozzi et al., J. Chem. Phys. 152 154105 (2020);
          URL http://www.quantum-espresso.org", 
     in publications or presentations arising from this work. More details at
     http://www.quantum-espresso.org/quote

     Parallel version (MPI), running on     1 processors

     MPI processes distributed on     1 nodes
     1424 MiB available memory on the printing compute node when the environment starts

     Reading input from espresso.pwi
Warning: card &CELL ignored
Warning: card &FCP ignored
Warning: card &RISM ignored

     Current dimensions of program PWSCF are:
     Max number of different atomic species (ntypx) = 10
     Max number of k-points (npk) =  40000
     Max angular momentum in pseudopotentials (lmaxx) =  4
     file Cr.pbe-spn-kjpaw_psl.1.0.0.UPF: wavefunction(s)  3S 3P 3D renormalized
     Message from routine setup:
     using ibrav=0 with symmetry is DISCOURAGED, use correct ibrav instead

     Subspace diagonalization in iterative solution of the eigenvalue problem:
     a serial algorithm will be used


     G-vector sticks info
     --------------------
     sticks:   dense  smooth     PW     G-vecs:    dense   smooth      PW
     Sum         487     249    103                 7011     2491     683

     Using Slab Decomposition



     bravais-lattice index     =            0
     lattice parameter (alat)  =       4.5719  a.u.
     unit-cell volume          =      73.5630 (a.u.)^3
     number of atoms/cell      =            1
     number of atomic types    =            1
     number of electrons       =        14.00
     number of Kohn-Sham states=           11
     kinetic-energy cutoff     =      40.0000  Ry
     charge density cutoff     =     320.0000  Ry
     scf convergence threshold =      1.0E-06
     mixing beta               =       0.7000
     number of iterations used =            8  plain     mixing
     Exchange-correlation= SLA  PW   PBX  PBC
                           (   1   4   3   4   0   0   0)

     celldm(1)=   4.571868  celldm(2)=   0.000000  celldm(3)=   0.000000
     celldm(4)=   0.000000  celldm(5)=   0.000000  celldm(6)=   0.000000

     crystal axes: (cart. coord. in units of alat)
               a(1) = (  -0.577350   0.577350   0.577350 )  
               a(2) = (   0.577350  -0.577350   0.577350 )  
               a(3) = (   0.577350   0.577350  -0.577350 )  

     reciprocal axes: (cart. coord. in units 2 pi/alat)
               b(1) = (  0.000000  0.866025  0.866025 )  
               b(2) = (  0.866025  0.000000  0.866025 )  
               b(3) = (  0.866025  0.866025  0.000000 )  


     PseudoPot. # 1 for Cr read from file:
     /home/kenobi/Workspaces/PHYS400/pseudopotentials/Cr.pbe-spn-kjpaw_psl.1.0.0.UPF
     MD5 check sum: 198f1a2427a48552563eee314eba32ba
     Pseudo is Projector augmented-wave + core cor, Zval = 14.0
     Generated using &quot;atomic&quot; code by A. Dal Corso  v.6.3
     Shape of augmentation charge: PSQ
     Using radial grid of 1183 points,  6 beta functions with: 
                l(1) =   0
                l(2) =   0
                l(3) =   1
                l(4) =   1
                l(5) =   2
                l(6) =   2
     Q(r) pseudized with 0 coefficients 


     atomic species   valence    mass     pseudopotential
     Cr               14.00    51.99610     Cr( 1.00)

     Starting magnetic structure 
     atomic species   magnetization
     Cr              0.000

     48 Sym. Ops., with inversion, found



   Cartesian axes

     site n.     atom                  positions (alat units)
         1        Cr     tau(   1) = (   0.0000000   0.0000000   0.0000000  )

     number of k points=    16  Marzari-Vanderbilt smearing, width (Ry)=  0.0200
                       cart. coord. in units 2pi/alat
        k(    1) = (   0.0000000   0.0000000   0.0000000), wk =   0.0046296
        k(    2) = (   0.1443376   0.1443376   0.0000000), wk =   0.0555556
        k(    3) = (   0.2886751   0.2886751   0.0000000), wk =   0.0555556
        k(    4) = (  -0.4330127  -0.4330127   0.0000000), wk =   0.0277778
        k(    5) = (   0.2886751   0.1443376   0.1443376), wk =   0.1111111
        k(    6) = (   0.4330127   0.2886751   0.1443376), wk =   0.2222222
        k(    7) = (   0.5773503   0.2886751   0.2886751), wk =   0.0370370
        k(    8) = (   0.2886751   0.2886751   0.2886751), wk =   0.0370370
        k(    9) = (   0.4330127   0.4330127   0.2886751), wk =   0.0555556
        k(   10) = (   0.0000000   0.0000000   0.2886751), wk =   0.0277778
        k(   11) = (  -0.0000000  -0.1443376   0.4330127), wk =   0.1111111
        k(   12) = (  -0.8660254  -0.2886751  -0.2886751), wk =   0.0555556
        k(   13) = (  -0.7216878  -0.1443376  -0.2886751), wk =   0.1111111
        k(   14) = (  -0.0000000  -0.0000000   0.5773503), wk =   0.0277778
        k(   15) = (  -0.8660254  -0.1443376  -0.1443376), wk =   0.0555556
        k(   16) = (  -0.8660254  -0.8660254  -0.8660254), wk =   0.0046296

     Dense  grid:     7011 G-vectors     FFT dimensions: (  25,  25,  25)

     Smooth grid:     2491 G-vectors     FFT dimensions: (  20,  20,  20)

     Estimated max dynamical RAM per process >      31.61 MB

     Check: negative core charge=   -0.000013
     Generating pointlists ...
     new r_m :   0.4125 (alat units)  1.8859 (a.u.) for type    1

     Initial potential from superposition of free atoms

     starting charge      13.9992, renormalised to      14.0000
     Starting wfcs are   10 randomized atomic wfcs +    1 random wfcs
     Checking if some PAW data can be deallocated... 

     total cpu time spent up to now is        0.9 secs

     Self-consistent Calculation

     iteration #  1     ecut=    40.00 Ry     beta= 0.70
     Davidson diagonalization with overlap
     ethr =  1.00E-02,  avg # of iterations =  3.1

     Threshold (ethr) on eigenvalues was too large:
     Diagonalizing with lowered threshold

     Davidson diagonalization with overlap
     ethr =  6.50E-04,  avg # of iterations =  1.6

     total cpu time spent up to now is        1.9 secs

     total energy              =    -248.15611193 Ry
     estimated scf accuracy    <       0.09469326 Ry

     total magnetization       =     0.00 Bohr mag/cell
     absolute magnetization    =     0.00 Bohr mag/cell

     iteration #  2     ecut=    40.00 Ry     beta= 0.70
     Davidson diagonalization with overlap
     ethr =  6.76E-04,  avg # of iterations =  2.8

     total cpu time spent up to now is        2.6 secs

     total energy              =    -248.17976285 Ry
     estimated scf accuracy    <       0.09210910 Ry

     total magnetization       =     0.00 Bohr mag/cell
     absolute magnetization    =     0.00 Bohr mag/cell

     iteration #  3     ecut=    40.00 Ry     beta= 0.70
     Davidson diagonalization with overlap
     ethr =  6.58E-04,  avg # of iterations =  2.0

     total cpu time spent up to now is        3.3 secs

     total energy              =    -248.19929279 Ry
     estimated scf accuracy    <       0.00024091 Ry

     total magnetization       =     0.00 Bohr mag/cell
     absolute magnetization    =     0.00 Bohr mag/cell

     iteration #  4     ecut=    40.00 Ry     beta= 0.70
     Davidson diagonalization with overlap
     ethr =  1.72E-06,  avg # of iterations =  3.8

     total cpu time spent up to now is        4.0 secs

     total energy              =    -248.19939673 Ry
     estimated scf accuracy    <       0.00007017 Ry

     total magnetization       =     0.00 Bohr mag/cell
     absolute magnetization    =     0.00 Bohr mag/cell

     iteration #  5     ecut=    40.00 Ry     beta= 0.70
     Davidson diagonalization with overlap
     ethr =  5.01E-07,  avg # of iterations =  1.8

     total cpu time spent up to now is        4.7 secs

     total energy              =    -248.19940459 Ry
     estimated scf accuracy    <       0.00000355 Ry

     total magnetization       =     0.00 Bohr mag/cell
     absolute magnetization    =     0.00 Bohr mag/cell

     iteration #  6     ecut=    40.00 Ry     beta= 0.70
     Davidson diagonalization with overlap
     ethr =  2.54E-08,  avg # of iterations =  3.1

     Magnetic moment per site  (integrated on atomic sphere of radius R)
     atom   1 (R=0.413)  charge= 12.1775  magn=  0.0000

     total cpu time spent up to now is        5.4 secs

     End of self-consistent calculation

 ------ SPIN UP ------------


          k = 0.0000 0.0000 0.0000 (   321 PWs)   bands (ev):

   -51.0626 -21.6731 -21.6731 -21.6731  12.7943  19.9180  19.9180  19.9180
    22.1456  22.1456  43.7567

          k = 0.1443 0.1443 0.0000 (   325 PWs)   bands (ev):

   -50.9982 -21.9575 -21.7589 -21.6762  14.0039  19.4525  19.7571  20.7816
    21.7882  22.1918  41.1249

          k = 0.2887 0.2887 0.0000 (   322 PWs)   bands (ev):

   -50.8673 -22.5014 -21.9292 -21.6874  16.0195  18.6113  20.0508  21.9769
    22.3803  22.7908  35.3542

          k =-0.4330-0.4330 0.0000 (   312 PWs)   bands (ev):

   -50.8006 -22.7623 -21.9982 -21.6841  16.1433  18.2282  22.1582  22.1894
    22.5287  24.0167  31.5255

          k = 0.2887 0.1443 0.1443 (   321 PWs)   bands (ev):

   -50.9003 -22.3225 -21.8743 -21.7406  15.8893  18.9459  19.0953  21.5834
    22.4072  22.6730  38.2564

          k = 0.4330 0.2887 0.1443 (   312 PWs)   bands (ev):

   -50.8009 -22.6268 -22.0741 -21.7560  16.8888  18.3885  19.7953  21.9946
    22.7533  25.4679  32.8355

          k = 0.5774 0.2887 0.2887 (   309 PWs)   bands (ev):

   -50.7678 -22.4199 -22.4199 -21.8008  17.7777  18.6539  18.6539  22.4494
    22.4494  30.1026  30.1026

          k = 0.2887 0.2887 0.2887 (   318 PWs)   bands (ev):

   -50.8235 -22.5329 -21.9258 -21.9258  17.8894  18.2765  18.2765  22.3757
    22.3757  25.6086  35.7499

          k = 0.4330 0.4330 0.2887 (   316 PWs)   bands (ev):

   -50.7850 -22.4944 -22.1632 -21.9496  17.7819  18.1088  19.3177  22.4766
    22.5797  28.6865  31.4749

          k = 0.0000 0.0000 0.2887 (   317 PWs)   bands (ev):

   -50.9383 -22.0132 -21.8451 -21.8451  15.0758  19.9895  19.9895  20.4482
    20.7582  22.7845  40.5143

          k =-0.0000-0.1443 0.4330 (   311 PWs)   bands (ev):

   -50.8174 -22.4415 -22.0157 -21.8768  16.8332  18.8979  19.5386  21.1088
    22.6113  23.7757  36.0096

          k =-0.8660-0.2887-0.2887 (   312 PWs)   bands (ev):

   -50.7563 -22.6752 -22.1124 -21.8643  16.8516  19.1246  19.2282  21.3512
    23.9051  26.2009  31.4892

          k =-0.7217-0.1443-0.2887 (   312 PWs)   bands (ev):

   -50.7342 -22.5396 -22.2905 -21.9255  17.7270  17.7838  19.5208  21.8606
    23.0794  27.4351  33.4519

          k =-0.0000-0.0000 0.5774 (   321 PWs)   bands (ev):

   -50.7178 -22.3898 -22.2277 -22.2277  17.1994  17.4843  21.4808  21.4808
    22.5838  26.0706  36.5738

          k =-0.8660-0.1443-0.1443 (   308 PWs)   bands (ev):

   -50.6668 -22.4850 -22.3050 -22.2364  16.7821  16.9593  21.7410  22.1513
    23.6923  29.9842  31.6567

          k =-0.8660-0.8660-0.8660 (   298 PWs)   bands (ev):

   -50.6214 -22.3915 -22.3915 -22.3915  16.1911  16.1911  23.5868  23.5868
    23.5868  32.0910  32.0910

 ------ SPIN DOWN ----------


          k = 0.0000 0.0000 0.0000 (   321 PWs)   bands (ev):

   -51.0626 -21.6730 -21.6730 -21.6730  12.7943  19.9181  19.9181  19.9181
    22.1456  22.1456  43.7567

          k = 0.1443 0.1443 0.0000 (   325 PWs)   bands (ev):

   -50.9982 -21.9574 -21.7588 -21.6762  14.0039  19.4525  19.7572  20.7817
    21.7882  22.1918  41.1250

          k = 0.2887 0.2887 0.0000 (   322 PWs)   bands (ev):

   -50.8673 -22.5014 -21.9292 -21.6874  16.0195  18.6114  20.0508  21.9769
    22.3803  22.7909  35.3543

          k =-0.4330-0.4330 0.0000 (   312 PWs)   bands (ev):

   -50.8006 -22.7623 -21.9981 -21.6841  16.1433  18.2283  22.1582  22.1894
    22.5287  24.0168  31.5255

          k = 0.2887 0.1443 0.1443 (   321 PWs)   bands (ev):

   -50.9002 -22.3224 -21.8743 -21.7405  15.8893  18.9460  19.0954  21.5834
    22.4072  22.6730  38.2563

          k = 0.4330 0.2887 0.1443 (   312 PWs)   bands (ev):

   -50.8009 -22.6268 -22.0740 -21.7560  16.8889  18.3886  19.7954  21.9946
    22.7533  25.4680  32.8355

          k = 0.5774 0.2887 0.2887 (   309 PWs)   bands (ev):

   -50.7677 -22.4198 -22.4198 -21.8008  17.7777  18.6540  18.6540  22.4494
    22.4494  30.1026  30.1026

          k = 0.2887 0.2887 0.2887 (   318 PWs)   bands (ev):

   -50.8235 -22.5329 -21.9258 -21.9258  17.8894  18.2766  18.2766  22.3757
    22.3757  25.6086  35.7499

          k = 0.4330 0.4330 0.2887 (   316 PWs)   bands (ev):

   -50.7849 -22.4944 -22.1632 -21.9496  17.7819  18.1088  19.3177  22.4766
    22.5797  28.6865  31.4750

          k = 0.0000 0.0000 0.2887 (   317 PWs)   bands (ev):

   -50.9383 -22.0131 -21.8451 -21.8451  15.0758  19.9896  19.9896  20.4482
    20.7583  22.7845  40.5143

          k =-0.0000-0.1443 0.4330 (   311 PWs)   bands (ev):

   -50.8173 -22.4414 -22.0157 -21.8767  16.8332  18.8979  19.5386  21.1088
    22.6113  23.7757  36.0096

          k =-0.8660-0.2887-0.2887 (   312 PWs)   bands (ev):

   -50.7563 -22.6751 -22.1123 -21.8642  16.8516  19.1246  19.2283  21.3512
    23.9052  26.2009  31.4892

          k =-0.7217-0.1443-0.2887 (   312 PWs)   bands (ev):

   -50.7341 -22.5395 -22.2905 -21.9255  17.7270  17.7838  19.5208  21.8606
    23.0795  27.4351  33.4520

          k =-0.0000-0.0000 0.5774 (   321 PWs)   bands (ev):

   -50.7178 -22.3898 -22.2276 -22.2276  17.1994  17.4843  21.4809  21.4809
    22.5839  26.0706  36.5738

          k =-0.8660-0.1443-0.1443 (   308 PWs)   bands (ev):

   -50.6668 -22.4850 -22.3049 -22.2364  16.7821  16.9593  21.7410  22.1514
    23.6923  29.9842  31.6567

          k =-0.8660-0.8660-0.8660 (   298 PWs)   bands (ev):

   -50.6214 -22.3915 -22.3915 -22.3915  16.1911  16.1911  23.5868  23.5868
    23.5868  32.0910  32.0910

     the Fermi energy is    20.9414 ev

!    total energy              =    -248.19940592 Ry
     total all-electron energy =     -2101.732084 Ry
     estimated scf accuracy    <       0.00000012 Ry
     smearing contrib. (-TS)   =      -0.00039606 Ry
     internal energy E=F+TS    =    -248.19900986 Ry

     The total energy is F=E-TS. E is the sum of the following terms:
     one-electron contribution =     -51.53891369 Ry
     hartree contribution      =      35.04412718 Ry
     xc contribution           =     -22.34210534 Ry
     ewald contribution        =    -135.11479228 Ry
     one-center paw contrib.   =     -74.24732574 Ry

     total magnetization       =     0.00 Bohr mag/cell
     absolute magnetization    =     0.00 Bohr mag/cell

     convergence has been achieved in   6 iterations

     Forces acting on atoms (cartesian axes, Ry/au):

     atom    1 type  1   force =     0.00000000    0.00000000    0.00000000

     Total force =     0.000000     Total SCF correction =     0.000000


     Computing stress (Cartesian axis) and pressure

          total   stress  (Ry/bohr**3)                   (kbar)     P=     -163.23
  -0.00110964   0.00000000   0.00000000         -163.23        0.00        0.00
   0.00000000  -0.00110964   0.00000000            0.00     -163.23        0.00
   0.00000000   0.00000000  -0.00110964            0.00        0.00     -163.23


     Writing all to output data dir ./pwscf.save/ :
     XML data file, charge density, pseudopotentials, collected wavefunctions

     init_run     :      0.75s CPU      0.81s WALL (       1 calls)
     electrons    :      4.17s CPU      4.42s WALL (       1 calls)
     forces       :      0.06s CPU      0.06s WALL (       1 calls)
     stress       :      0.26s CPU      0.27s WALL (       1 calls)

     Called by init_run:
     wfcinit      :      0.07s CPU      0.07s WALL (       1 calls)
     potinit      :      0.40s CPU      0.45s WALL (       1 calls)
     hinit0       :      0.25s CPU      0.26s WALL (       1 calls)

     Called by electrons:
     c_bands      :      1.31s CPU      1.33s WALL (       7 calls)
     sum_band     :      0.42s CPU      0.43s WALL (       7 calls)
     v_of_rho     :      0.09s CPU      0.09s WALL (       7 calls)
     newd         :      0.14s CPU      0.18s WALL (       7 calls)
     PAW_pot      :      2.59s CPU      2.82s WALL (       7 calls)
     mix_rho      :      0.01s CPU      0.01s WALL (       7 calls)

     Called by c_bands:
     init_us_2    :      0.03s CPU      0.03s WALL (     544 calls)
     cegterg      :      1.26s CPU      1.29s WALL (     224 calls)

     Called by *egterg:
     cdiaghg      :      0.08s CPU      0.08s WALL (     771 calls)
     h_psi        :      1.00s CPU      1.01s WALL (     835 calls)
     s_psi        :      0.04s CPU      0.04s WALL (     835 calls)
     g_psi        :      0.00s CPU      0.00s WALL (     579 calls)

     Called by h_psi:
     h_psi:calbec :      0.06s CPU      0.06s WALL (     835 calls)
     vloc_psi     :      0.90s CPU      0.91s WALL (     835 calls)
                                        0.00s GPU  (     835 calls)
     add_vuspsi   :      0.04s CPU      0.04s WALL (     835 calls)

     General routines
     calbec       :      0.12s CPU      0.13s WALL (    1603 calls)
     fft          :      0.05s CPU      0.05s WALL (     215 calls)
     ffts         :      0.00s CPU      0.00s WALL (      28 calls)
     fftw         :      0.98s CPU      0.99s WALL (   15406 calls)
     interpolate  :      0.01s CPU      0.01s WALL (      14 calls)

     Parallel routines

     PWSCF        :      5.37s CPU      5.69s WALL


   This run was terminated on:  16:10:12  15Mar2026            

=------------------------------------------------------------------------------=
   JOB DONE.
=------------------------------------------------------------------------------=
