
     Program PWSCF v.7.5 starts on 15Mar2026 at 16:10:33 

     This program is part of the open-source Quantum ESPRESSO suite
     for quantum simulation of materials; please cite
         "P. Giannozzi et al., J. Phys.:Condens. Matter 21 395502 (2009);
         "P. Giannozzi et al., J. Phys.:Condens. Matter 29 465901 (2017);
         "P. Giannozzi et al., J. Chem. Phys. 152 154105 (2020);
          URL http://www.quantum-espresso.org", 
     in publications or presentations arising from this work. More details at
     http://www.quantum-espresso.org/quote

     Parallel version (MPI), running on     1 processors

     MPI processes distributed on     1 nodes
     1356 MiB available memory on the printing compute node when the environment starts

     Reading input from espresso.pwi
Warning: card &CELL ignored
Warning: card &FCP ignored
Warning: card &RISM ignored

     Current dimensions of program PWSCF are:
     Max number of different atomic species (ntypx) = 10
     Max number of k-points (npk) =  40000
     Max angular momentum in pseudopotentials (lmaxx) =  4
     file Cr.pbe-spn-kjpaw_psl.1.0.0.UPF: wavefunction(s)  3S 3P 3D renormalized
     Message from routine setup:
     using ibrav=0 with symmetry is DISCOURAGED, use correct ibrav instead

     Subspace diagonalization in iterative solution of the eigenvalue problem:
     a serial algorithm will be used


     G-vector sticks info
     --------------------
     sticks:   dense  smooth     PW     G-vecs:    dense   smooth      PW
     Sum         557     277    117                 8391     2899     791

     Using Slab Decomposition



     bravais-lattice index     =            0
     lattice parameter (alat)  =       4.8259  a.u.
     unit-cell volume          =      86.5172 (a.u.)^3
     number of atoms/cell      =            1
     number of atomic types    =            1
     number of electrons       =        14.00
     number of Kohn-Sham states=           11
     kinetic-energy cutoff     =      40.0000  Ry
     charge density cutoff     =     320.0000  Ry
     scf convergence threshold =      1.0E-06
     mixing beta               =       0.7000
     number of iterations used =            8  plain     mixing
     Exchange-correlation= SLA  PW   PBX  PBC
                           (   1   4   3   4   0   0   0)

     celldm(1)=   4.825861  celldm(2)=   0.000000  celldm(3)=   0.000000
     celldm(4)=   0.000000  celldm(5)=   0.000000  celldm(6)=   0.000000

     crystal axes: (cart. coord. in units of alat)
               a(1) = (  -0.577350   0.577350   0.577350 )  
               a(2) = (   0.577350  -0.577350   0.577350 )  
               a(3) = (   0.577350   0.577350  -0.577350 )  

     reciprocal axes: (cart. coord. in units 2 pi/alat)
               b(1) = (  0.000000  0.866025  0.866025 )  
               b(2) = (  0.866025  0.000000  0.866025 )  
               b(3) = (  0.866025  0.866025  0.000000 )  


     PseudoPot. # 1 for Cr read from file:
     /home/kenobi/Workspaces/PHYS400/pseudopotentials/Cr.pbe-spn-kjpaw_psl.1.0.0.UPF
     MD5 check sum: 198f1a2427a48552563eee314eba32ba
     Pseudo is Projector augmented-wave + core cor, Zval = 14.0
     Generated using &quot;atomic&quot; code by A. Dal Corso  v.6.3
     Shape of augmentation charge: PSQ
     Using radial grid of 1183 points,  6 beta functions with: 
                l(1) =   0
                l(2) =   0
                l(3) =   1
                l(4) =   1
                l(5) =   2
                l(6) =   2
     Q(r) pseudized with 0 coefficients 


     atomic species   valence    mass     pseudopotential
     Cr               14.00    51.99610     Cr( 1.00)

     Starting magnetic structure 
     atomic species   magnetization
     Cr              0.000

     48 Sym. Ops., with inversion, found



   Cartesian axes

     site n.     atom                  positions (alat units)
         1        Cr     tau(   1) = (   0.0000000   0.0000000   0.0000000  )

     number of k points=    16  Marzari-Vanderbilt smearing, width (Ry)=  0.0200
                       cart. coord. in units 2pi/alat
        k(    1) = (   0.0000000   0.0000000   0.0000000), wk =   0.0046296
        k(    2) = (   0.1443376   0.1443376   0.0000000), wk =   0.0555556
        k(    3) = (   0.2886751   0.2886751   0.0000000), wk =   0.0555556
        k(    4) = (  -0.4330127  -0.4330127   0.0000000), wk =   0.0277778
        k(    5) = (   0.2886751   0.1443376   0.1443376), wk =   0.1111111
        k(    6) = (   0.4330127   0.2886751   0.1443376), wk =   0.2222222
        k(    7) = (   0.5773503   0.2886751   0.2886751), wk =   0.0370370
        k(    8) = (   0.2886751   0.2886751   0.2886751), wk =   0.0370370
        k(    9) = (   0.4330127   0.4330127   0.2886751), wk =   0.0555556
        k(   10) = (   0.0000000   0.0000000   0.2886751), wk =   0.0277778
        k(   11) = (  -0.0000000  -0.1443376   0.4330127), wk =   0.1111111
        k(   12) = (  -0.8660254  -0.2886751  -0.2886751), wk =   0.0555556
        k(   13) = (  -0.7216878  -0.1443376  -0.2886751), wk =   0.1111111
        k(   14) = (  -0.0000000  -0.0000000   0.5773503), wk =   0.0277778
        k(   15) = (  -0.8660254  -0.1443376  -0.1443376), wk =   0.0555556
        k(   16) = (  -0.8660254  -0.8660254  -0.8660254), wk =   0.0046296

     Dense  grid:     8391 G-vectors     FFT dimensions: (  27,  27,  27)

     Smooth grid:     2899 G-vectors     FFT dimensions: (  20,  20,  20)

     Estimated max dynamical RAM per process >      37.62 MB

     Check: negative core charge=   -0.000011
     Generating pointlists ...
     new r_m :   0.4125 (alat units)  1.9907 (a.u.) for type    1

     Initial potential from superposition of free atoms

     starting charge      13.9992, renormalised to      14.0000
     Starting wfcs are   10 randomized atomic wfcs +    1 random wfcs
     Checking if some PAW data can be deallocated... 

     total cpu time spent up to now is        1.0 secs

     Self-consistent Calculation

     iteration #  1     ecut=    40.00 Ry     beta= 0.70
     Davidson diagonalization with overlap
     ethr =  1.00E-02,  avg # of iterations =  3.1

     Threshold (ethr) on eigenvalues was too large:
     Diagonalizing with lowered threshold

     Davidson diagonalization with overlap
     ethr =  7.17E-04,  avg # of iterations =  1.4

     total cpu time spent up to now is        2.0 secs

     total energy              =    -248.14206650 Ry
     estimated scf accuracy    <       0.10481828 Ry

     total magnetization       =     0.00 Bohr mag/cell
     absolute magnetization    =     0.00 Bohr mag/cell

     iteration #  2     ecut=    40.00 Ry     beta= 0.70
     Davidson diagonalization with overlap
     ethr =  7.49E-04,  avg # of iterations =  2.9

     total cpu time spent up to now is        2.7 secs

     total energy              =    -248.16308927 Ry
     estimated scf accuracy    <       0.16018440 Ry

     total magnetization       =     0.00 Bohr mag/cell
     absolute magnetization    =     0.00 Bohr mag/cell

     iteration #  3     ecut=    40.00 Ry     beta= 0.70
     Davidson diagonalization with overlap
     ethr =  7.49E-04,  avg # of iterations =  2.0

     total cpu time spent up to now is        3.4 secs

     total energy              =    -248.19476211 Ry
     estimated scf accuracy    <       0.00027549 Ry

     total magnetization       =     0.00 Bohr mag/cell
     absolute magnetization    =     0.00 Bohr mag/cell

     iteration #  4     ecut=    40.00 Ry     beta= 0.70
     Davidson diagonalization with overlap
     ethr =  1.97E-06,  avg # of iterations =  4.2

     total cpu time spent up to now is        4.3 secs

     total energy              =    -248.19491584 Ry
     estimated scf accuracy    <       0.00019709 Ry

     total magnetization       =     0.00 Bohr mag/cell
     absolute magnetization    =     0.00 Bohr mag/cell

     iteration #  5     ecut=    40.00 Ry     beta= 0.70
     Davidson diagonalization with overlap
     ethr =  1.41E-06,  avg # of iterations =  2.0

     Magnetic moment per site  (integrated on atomic sphere of radius R)
     atom   1 (R=0.413)  charge= 12.2974  magn=  0.0001

     total cpu time spent up to now is        5.0 secs

     End of self-consistent calculation

 ------ SPIN UP ------------


          k = 0.0000 0.0000 0.0000 (   369 PWs)   bands (ev):

   -54.6023 -25.4737 -25.4737 -25.4737   9.7699  16.5160  16.5160  16.5160
    18.3249  18.3249  38.8199

          k = 0.1443 0.1443 0.0000 (   368 PWs)   bands (ev):

   -54.5682 -25.6330 -25.5283 -25.4721  10.8343  16.1501  16.3886  17.2074
    18.0471  18.3617  35.7030

          k = 0.2887 0.2887 0.0000 (   368 PWs)   bands (ev):

   -54.4997 -25.9703 -25.6312 -25.4641  12.9224  15.4796  16.4549  18.1710
    18.5008  18.8082  29.7603

          k =-0.4330-0.4330 0.0000 (   360 PWs)   bands (ev):

   -54.4649 -26.1124 -25.6734 -25.4573  13.3302  15.1705  18.1815  18.3058
    18.6110  19.7772  26.0318

          k = 0.2887 0.1443 0.1443 (   363 PWs)   bands (ev):

   -54.5168 -25.8567 -25.5857 -25.5025  12.5862  15.7485  15.8419  17.8808
    18.5078  18.7041  32.7779

          k = 0.4330 0.2887 0.1443 (   372 PWs)   bands (ev):

   -54.4654 -26.0420 -25.7215 -25.5223  13.8961  15.2821  16.2658  18.1859
    18.7711  20.9746  27.3731

          k = 0.5774 0.2887 0.2887 (   375 PWs)   bands (ev):

   -54.4482 -25.9249 -25.9249 -25.5552  14.7515  15.4037  15.4037  18.5395
    18.5395  25.0629  25.0629

          k = 0.2887 0.2887 0.2887 (   354 PWs)   bands (ev):

   -54.4769 -25.9739 -25.6005 -25.6005  14.4748  15.1731  15.1731  18.4911
    18.4911  21.0811  30.3990

          k = 0.4330 0.4330 0.2887 (   362 PWs)   bands (ev):

   -54.4574 -25.9505 -25.7640 -25.6153  14.6805  15.0185  15.8798  18.5628
    18.6472  23.8353  26.1652

          k = 0.0000 0.0000 0.2887 (   373 PWs)   bands (ev):

   -54.5368 -25.6743 -25.5833 -25.5833  11.7949  16.5730  16.5730  17.0203
    17.1986  18.7958  35.2570

          k =-0.0000-0.1443 0.4330 (   374 PWs)   bands (ev):

   -54.4732 -25.9368 -25.6902 -25.5979  13.6346  15.6974  16.2170  17.4780
    18.6695  19.5306  30.3813

          k =-0.8660-0.2887-0.2887 (   380 PWs)   bands (ev):

   -54.4414 -26.0855 -25.7522 -25.5927  13.9616  15.7987  15.9683  17.6746
    19.6887  21.6221  26.0382

          k =-0.7217-0.1443-0.2887 (   370 PWs)   bands (ev):

   -54.4290 -25.9887 -25.8436 -25.6311  14.6302  14.8156  16.1908  18.0732
    19.0325  22.6305  28.0426

          k =-0.0000-0.0000 0.5774 (   370 PWs)   bands (ev):

   -54.4195 -25.8880 -25.8067 -25.8067  14.1802  14.6381  17.7644  17.7644
    18.6578  21.4376  30.8888

          k =-0.8660-0.1443-0.1443 (   380 PWs)   bands (ev):

   -54.3929 -25.9799 -25.8721 -25.8288  14.0276  14.1377  17.9776  18.2948
    19.5214  24.9866  26.3754

          k =-0.8660-0.8660-0.8660 (   370 PWs)   bands (ev):

   -54.3682 -25.9303 -25.9303 -25.9303  13.5647  13.5647  19.4382  19.4382
    19.4382  27.0127  27.0127

 ------ SPIN DOWN ----------


          k = 0.0000 0.0000 0.0000 (   369 PWs)   bands (ev):

   -54.6021 -25.4734 -25.4734 -25.4734   9.7701  16.5164  16.5164  16.5164
    18.3251  18.3251  38.8201

          k = 0.1443 0.1443 0.0000 (   368 PWs)   bands (ev):

   -54.5680 -25.6327 -25.5281 -25.4718  10.8345  16.1504  16.3890  17.2077
    18.0473  18.3618  35.7033

          k = 0.2887 0.2887 0.0000 (   368 PWs)   bands (ev):

   -54.4995 -25.9700 -25.6310 -25.4639  12.9227  15.4799  16.4552  18.1712
    18.5009  18.8086  29.7605

          k =-0.4330-0.4330 0.0000 (   360 PWs)   bands (ev):

   -54.4647 -26.1121 -25.6732 -25.4570  13.3305  15.1709  18.1817  18.3061
    18.6112  19.7775  26.0321

          k = 0.2887 0.1443 0.1443 (   363 PWs)   bands (ev):

   -54.5165 -25.8565 -25.5854 -25.5022  12.5864  15.7488  15.8423  17.8810
    18.5081  18.7043  32.7782

          k = 0.4330 0.2887 0.1443 (   372 PWs)   bands (ev):

   -54.4651 -26.0418 -25.7212 -25.5221  13.8963  15.2824  16.2660  18.1861
    18.7713  20.9749  27.3733

          k = 0.5774 0.2887 0.2887 (   375 PWs)   bands (ev):

   -54.4480 -25.9247 -25.9247 -25.5549  14.7519  15.4040  15.4040  18.5397
    18.5397  25.0631  25.0631

          k = 0.2887 0.2887 0.2887 (   354 PWs)   bands (ev):

   -54.4767 -25.9737 -25.6003 -25.6003  14.4751  15.1734  15.1734  18.4913
    18.4913  21.0814  30.3992

          k = 0.4330 0.4330 0.2887 (   362 PWs)   bands (ev):

   -54.4571 -25.9503 -25.7638 -25.6150  14.6808  15.0188  15.8801  18.5630
    18.6474  23.8356  26.1655

          k = 0.0000 0.0000 0.2887 (   373 PWs)   bands (ev):

   -54.5365 -25.6741 -25.5830 -25.5830  11.7951  16.5734  16.5734  17.0205
    17.1990  18.7960  35.2572

          k =-0.0000-0.1443 0.4330 (   374 PWs)   bands (ev):

   -54.4729 -25.9365 -25.6900 -25.5976  13.6349  15.6976  16.2174  17.4783
    18.6699  19.5308  30.3815

          k =-0.8660-0.2887-0.2887 (   380 PWs)   bands (ev):

   -54.4411 -26.0853 -25.7519 -25.5924  13.9618  15.7989  15.9686  17.6748
    19.6890  21.6223  26.0385

          k =-0.7217-0.1443-0.2887 (   370 PWs)   bands (ev):

   -54.4287 -25.9884 -25.8433 -25.6308  14.6304  14.8158  16.1911  18.0735
    19.0328  22.6308  28.0429

          k =-0.0000-0.0000 0.5774 (   370 PWs)   bands (ev):

   -54.4192 -25.8877 -25.8065 -25.8065  14.1803  14.6382  17.7647  17.7647
    18.6581  21.4379  30.8891

          k =-0.8660-0.1443-0.1443 (   380 PWs)   bands (ev):

   -54.3926 -25.9796 -25.8718 -25.8285  14.0277  14.1378  17.9779  18.2951
    19.5217  24.9868  26.3757

          k =-0.8660-0.8660-0.8660 (   370 PWs)   bands (ev):

   -54.3680 -25.9301 -25.9301 -25.9301  13.5648  13.5648  19.4385  19.4385
    19.4385  27.0130  27.0130

     the Fermi energy is    17.3444 ev

!    total energy              =    -248.19495020 Ry
     total all-electron energy =     -2101.727629 Ry
     estimated scf accuracy    <       0.00000087 Ry
     smearing contrib. (-TS)   =      -0.00061508 Ry
     internal energy E=F+TS    =    -248.19433512 Ry

     The total energy is F=E-TS. E is the sum of the following terms:
     one-electron contribution =     -62.29729670 Ry
     hartree contribution      =      38.53405942 Ry
     xc contribution           =     -22.18844745 Ry
     ewald contribution        =    -128.00348742 Ry
     one-center paw contrib.   =     -74.23916297 Ry

     total magnetization       =     0.00 Bohr mag/cell
     absolute magnetization    =     0.00 Bohr mag/cell

     convergence has been achieved in   5 iterations

     Forces acting on atoms (cartesian axes, Ry/au):

     atom    1 type  1   force =     0.00000000    0.00000000    0.00000000

     Total force =     0.000000     Total SCF correction =     0.000000


     Computing stress (Cartesian axis) and pressure

          total   stress  (Ry/bohr**3)                   (kbar)     P=     -519.25
  -0.00352982   0.00000000   0.00000000         -519.25        0.00        0.00
   0.00000000  -0.00352982   0.00000000            0.00     -519.25        0.00
   0.00000000  -0.00000000  -0.00352982            0.00       -0.00     -519.25


     Writing all to output data dir ./pwscf.save/ :
     XML data file, charge density, pseudopotentials, collected wavefunctions

     init_run     :      0.78s CPU      0.84s WALL (       1 calls)
     electrons    :      3.81s CPU      4.04s WALL (       1 calls)
     forces       :      0.08s CPU      0.08s WALL (       1 calls)
     stress       :      0.32s CPU      0.32s WALL (       1 calls)

     Called by init_run:
     wfcinit      :      0.07s CPU      0.07s WALL (       1 calls)
     potinit      :      0.42s CPU      0.46s WALL (       1 calls)
     hinit0       :      0.26s CPU      0.26s WALL (       1 calls)

     Called by electrons:
     c_bands      :      1.24s CPU      1.25s WALL (       6 calls)
     sum_band     :      0.43s CPU      0.44s WALL (       6 calls)
     v_of_rho     :      0.10s CPU      0.10s WALL (       6 calls)
     newd         :      0.15s CPU      0.20s WALL (       6 calls)
     PAW_pot      :      2.29s CPU      2.51s WALL (       6 calls)
     mix_rho      :      0.01s CPU      0.01s WALL (       6 calls)

     Called by c_bands:
     init_us_2    :      0.03s CPU      0.03s WALL (     480 calls)
     cegterg      :      1.19s CPU      1.21s WALL (     192 calls)

     Called by *egterg:
     cdiaghg      :      0.07s CPU      0.07s WALL (     659 calls)
     h_psi        :      0.92s CPU      0.93s WALL (     723 calls)
     s_psi        :      0.04s CPU      0.04s WALL (     723 calls)
     g_psi        :      0.00s CPU      0.00s WALL (     499 calls)

     Called by h_psi:
     h_psi:calbec :      0.06s CPU      0.06s WALL (     723 calls)
     vloc_psi     :      0.82s CPU      0.83s WALL (     723 calls)
                                        0.00s GPU  (     723 calls)
     add_vuspsi   :      0.04s CPU      0.04s WALL (     723 calls)

     General routines
     calbec       :      0.14s CPU      0.14s WALL (    1459 calls)
     fft          :      0.05s CPU      0.05s WALL (     190 calls)
     ffts         :      0.00s CPU      0.00s WALL (      24 calls)
     fftw         :      0.90s CPU      0.91s WALL (   13490 calls)
     interpolate  :      0.01s CPU      0.01s WALL (      12 calls)

     Parallel routines

     PWSCF        :      5.11s CPU      5.42s WALL


   This run was terminated on:  16:10:39  15Mar2026            

=------------------------------------------------------------------------------=
   JOB DONE.
=------------------------------------------------------------------------------=
