
     Program PWSCF v.7.5 starts on 15Mar2026 at 16:10:26 

     This program is part of the open-source Quantum ESPRESSO suite
     for quantum simulation of materials; please cite
         "P. Giannozzi et al., J. Phys.:Condens. Matter 21 395502 (2009);
         "P. Giannozzi et al., J. Phys.:Condens. Matter 29 465901 (2017);
         "P. Giannozzi et al., J. Chem. Phys. 152 154105 (2020);
          URL http://www.quantum-espresso.org", 
     in publications or presentations arising from this work. More details at
     http://www.quantum-espresso.org/quote

     Parallel version (MPI), running on     1 processors

     MPI processes distributed on     1 nodes
     1294 MiB available memory on the printing compute node when the environment starts

     Reading input from espresso.pwi
Warning: card &CELL ignored
Warning: card &FCP ignored
Warning: card &RISM ignored

     Current dimensions of program PWSCF are:
     Max number of different atomic species (ntypx) = 10
     Max number of k-points (npk) =  40000
     Max angular momentum in pseudopotentials (lmaxx) =  4
     file Cr.pbe-spn-kjpaw_psl.1.0.0.UPF: wavefunction(s)  3S 3P 3D renormalized
     Message from routine setup:
     using ibrav=0 with symmetry is DISCOURAGED, use correct ibrav instead

     Subspace diagonalization in iterative solution of the eigenvalue problem:
     a serial algorithm will be used


     G-vector sticks info
     --------------------
     sticks:   dense  smooth     PW     G-vecs:    dense   smooth      PW
     Sum         541     277    117                 8007     2899     791

     Using Slab Decomposition



     bravais-lattice index     =            0
     lattice parameter (alat)  =       4.7624  a.u.
     unit-cell volume          =      83.1468 (a.u.)^3
     number of atoms/cell      =            1
     number of atomic types    =            1
     number of electrons       =        14.00
     number of Kohn-Sham states=           11
     kinetic-energy cutoff     =      40.0000  Ry
     charge density cutoff     =     320.0000  Ry
     scf convergence threshold =      1.0E-06
     mixing beta               =       0.7000
     number of iterations used =            8  plain     mixing
     Exchange-correlation= SLA  PW   PBX  PBC
                           (   1   4   3   4   0   0   0)

     celldm(1)=   4.762363  celldm(2)=   0.000000  celldm(3)=   0.000000
     celldm(4)=   0.000000  celldm(5)=   0.000000  celldm(6)=   0.000000

     crystal axes: (cart. coord. in units of alat)
               a(1) = (  -0.577350   0.577350   0.577350 )  
               a(2) = (   0.577350  -0.577350   0.577350 )  
               a(3) = (   0.577350   0.577350  -0.577350 )  

     reciprocal axes: (cart. coord. in units 2 pi/alat)
               b(1) = (  0.000000  0.866025  0.866025 )  
               b(2) = (  0.866025  0.000000  0.866025 )  
               b(3) = (  0.866025  0.866025  0.000000 )  


     PseudoPot. # 1 for Cr read from file:
     /home/kenobi/Workspaces/PHYS400/pseudopotentials/Cr.pbe-spn-kjpaw_psl.1.0.0.UPF
     MD5 check sum: 198f1a2427a48552563eee314eba32ba
     Pseudo is Projector augmented-wave + core cor, Zval = 14.0
     Generated using &quot;atomic&quot; code by A. Dal Corso  v.6.3
     Shape of augmentation charge: PSQ
     Using radial grid of 1183 points,  6 beta functions with: 
                l(1) =   0
                l(2) =   0
                l(3) =   1
                l(4) =   1
                l(5) =   2
                l(6) =   2
     Q(r) pseudized with 0 coefficients 


     atomic species   valence    mass     pseudopotential
     Cr               14.00    51.99610     Cr( 1.00)

     Starting magnetic structure 
     atomic species   magnetization
     Cr              0.000

     48 Sym. Ops., with inversion, found



   Cartesian axes

     site n.     atom                  positions (alat units)
         1        Cr     tau(   1) = (   0.0000000   0.0000000   0.0000000  )

     number of k points=    16  Marzari-Vanderbilt smearing, width (Ry)=  0.0200
                       cart. coord. in units 2pi/alat
        k(    1) = (   0.0000000   0.0000000   0.0000000), wk =   0.0046296
        k(    2) = (   0.1443376   0.1443376   0.0000000), wk =   0.0555556
        k(    3) = (   0.2886751   0.2886751   0.0000000), wk =   0.0555556
        k(    4) = (  -0.4330127  -0.4330127   0.0000000), wk =   0.0277778
        k(    5) = (   0.2886751   0.1443376   0.1443376), wk =   0.1111111
        k(    6) = (   0.4330127   0.2886751   0.1443376), wk =   0.2222222
        k(    7) = (   0.5773503   0.2886751   0.2886751), wk =   0.0370370
        k(    8) = (   0.2886751   0.2886751   0.2886751), wk =   0.0370370
        k(    9) = (   0.4330127   0.4330127   0.2886751), wk =   0.0555556
        k(   10) = (   0.0000000   0.0000000   0.2886751), wk =   0.0277778
        k(   11) = (  -0.0000000  -0.1443376   0.4330127), wk =   0.1111111
        k(   12) = (  -0.8660254  -0.2886751  -0.2886751), wk =   0.0555556
        k(   13) = (  -0.7216878  -0.1443376  -0.2886751), wk =   0.1111111
        k(   14) = (  -0.0000000  -0.0000000   0.5773503), wk =   0.0277778
        k(   15) = (  -0.8660254  -0.1443376  -0.1443376), wk =   0.0555556
        k(   16) = (  -0.8660254  -0.8660254  -0.8660254), wk =   0.0046296

     Dense  grid:     8007 G-vectors     FFT dimensions: (  27,  27,  27)

     Smooth grid:     2899 G-vectors     FFT dimensions: (  20,  20,  20)

     Estimated max dynamical RAM per process >      36.08 MB

     Check: negative core charge=   -0.000012
     Generating pointlists ...
     new r_m :   0.4125 (alat units)  1.9645 (a.u.) for type    1

     Initial potential from superposition of free atoms

     starting charge      13.9992, renormalised to      14.0000
     Starting wfcs are   10 randomized atomic wfcs +    1 random wfcs
     Checking if some PAW data can be deallocated... 

     total cpu time spent up to now is        1.1 secs

     Self-consistent Calculation

     iteration #  1     ecut=    40.00 Ry     beta= 0.70
     Davidson diagonalization with overlap
     ethr =  1.00E-02,  avg # of iterations =  3.1

     Threshold (ethr) on eigenvalues was too large:
     Diagonalizing with lowered threshold

     Davidson diagonalization with overlap
     ethr =  7.04E-04,  avg # of iterations =  1.5

     total cpu time spent up to now is        2.0 secs

     total energy              =    -248.14795385 Ry
     estimated scf accuracy    <       0.10304915 Ry

     total magnetization       =     0.00 Bohr mag/cell
     absolute magnetization    =     0.00 Bohr mag/cell

     iteration #  2     ecut=    40.00 Ry     beta= 0.70
     Davidson diagonalization with overlap
     ethr =  7.36E-04,  avg # of iterations =  2.9

     total cpu time spent up to now is        2.8 secs

     total energy              =    -248.17016449 Ry
     estimated scf accuracy    <       0.14135430 Ry

     total magnetization       =     0.00 Bohr mag/cell
     absolute magnetization    =     0.00 Bohr mag/cell

     iteration #  3     ecut=    40.00 Ry     beta= 0.70
     Davidson diagonalization with overlap
     ethr =  7.36E-04,  avg # of iterations =  2.0

     total cpu time spent up to now is        3.5 secs

     total energy              =    -248.19865715 Ry
     estimated scf accuracy    <       0.00025610 Ry

     total magnetization       =     0.00 Bohr mag/cell
     absolute magnetization    =     0.00 Bohr mag/cell

     iteration #  4     ecut=    40.00 Ry     beta= 0.70
     Davidson diagonalization with overlap
     ethr =  1.83E-06,  avg # of iterations =  4.1

     total cpu time spent up to now is        4.3 secs

     total energy              =    -248.19880075 Ry
     estimated scf accuracy    <       0.00016149 Ry

     total magnetization       =     0.00 Bohr mag/cell
     absolute magnetization    =     0.00 Bohr mag/cell

     iteration #  5     ecut=    40.00 Ry     beta= 0.70
     Davidson diagonalization with overlap
     ethr =  1.15E-06,  avg # of iterations =  2.0

     total cpu time spent up to now is        5.1 secs

     total energy              =    -248.19882792 Ry
     estimated scf accuracy    <       0.00000126 Ry

     total magnetization       =     0.00 Bohr mag/cell
     absolute magnetization    =     0.00 Bohr mag/cell

     iteration #  6     ecut=    40.00 Ry     beta= 0.70
     Davidson diagonalization with overlap
     ethr =  9.01E-09,  avg # of iterations =  4.1

     Magnetic moment per site  (integrated on atomic sphere of radius R)
     atom   1 (R=0.413)  charge= 12.2692  magn=  0.0000

     total cpu time spent up to now is        5.8 secs

     End of self-consistent calculation

 ------ SPIN UP ------------


          k = 0.0000 0.0000 0.0000 (   369 PWs)   bands (ev):

   -53.7824 -24.6116 -24.6116 -24.6116  10.4503  17.3018  17.3018  17.3018
    19.2059  19.2059  39.9796

          k = 0.1443 0.1443 0.0000 (   350 PWs)   bands (ev):

   -53.7418 -24.7835 -24.6568 -24.5937  11.5529  16.9145  17.1665  18.0327
    18.9117  19.2460  36.9694

          k = 0.2887 0.2887 0.0000 (   354 PWs)   bands (ev):

   -53.6614 -25.1586 -24.7766 -24.5996  13.6352  16.2056  17.2760  19.0476
    19.3945  19.7248  31.0562

          k =-0.4330-0.4330 0.0000 (   360 PWs)   bands (ev):

   -53.6210 -25.3459 -24.8412 -24.6014  13.9794  15.8787  19.0924  19.1919
    19.5113  20.7488  27.2882

          k = 0.2887 0.1443 0.1443 (   359 PWs)   bands (ev):

   -53.6818 -25.0501 -24.7397 -24.6407  13.3361  16.4879  16.5925  18.7358
    19.4047  19.6153  34.0469

          k = 0.4330 0.2887 0.1443 (   351 PWs)   bands (ev):

   -53.6208 -25.2398 -24.8756 -24.6526  14.5876  16.0011  17.0734  19.0646
    19.6878  22.0072  28.6322

          k = 0.5774 0.2887 0.2887 (   351 PWs)   bands (ev):

   -53.6005 -25.1029 -25.1029 -24.6855  15.4518  16.1514  16.1514  19.4418
    19.4418  26.2205  26.2205

          k = 0.2887 0.2887 0.2887 (   354 PWs)   bands (ev):

   -53.6350 -25.1875 -24.7651 -24.7651  15.2517  15.8897  15.8897  19.3844
    19.3844  22.1169  31.6350

          k = 0.4330 0.4330 0.2887 (   348 PWs)   bands (ev):

   -53.6115 -25.1496 -24.9259 -24.7749  15.3946  15.7316  16.6667  19.4643
    19.5527  24.9495  27.3880

          k = 0.0000 0.0000 0.2887 (   349 PWs)   bands (ev):

   -53.7047 -24.8257 -24.7129 -24.7129  12.5399  17.3630  17.3630  17.8160
    18.0212  19.7132  36.4835

          k =-0.0000-0.1443 0.4330 (   359 PWs)   bands (ev):

   -53.6304 -25.1242 -24.8476 -24.7410  14.3688  16.4361  16.9850  18.3152
    19.5765  20.5043  31.6822

          k =-0.8660-0.2887-0.2887 (   360 PWs)   bands (ev):

   -53.5929 -25.2860 -24.9139 -24.7294  14.6299  16.5638  16.7227  18.5233
    20.6583  22.6703  27.2931

          k =-0.7217-0.1443-0.2887 (   358 PWs)   bands (ev):

   -53.5787 -25.1942 -25.0222 -24.7792  15.3433  15.5028  16.9601  18.9461
    19.9633  23.7304  29.2843

          k =-0.0000-0.0000 0.5774 (   362 PWs)   bands (ev):

   -53.5679 -25.0816 -24.9839 -24.9839  14.8749  15.3004  18.6203  18.6203
    19.5616  22.4962  32.2001

          k =-0.8660-0.1443-0.1443 (   354 PWs)   bands (ev):

   -53.5361 -25.1774 -25.0443 -24.9692  14.6677  14.7924  18.8476  19.1849
    20.4789  26.1324  27.5876

          k =-0.8660-0.8660-0.8660 (   370 PWs)   bands (ev):

   -53.5083 -25.1291 -25.1291 -25.1291  14.1762  14.1762  20.3895  20.3895
    20.3895  28.1805  28.1805

 ------ SPIN DOWN ----------


          k = 0.0000 0.0000 0.0000 (   369 PWs)   bands (ev):

   -53.7823 -24.6115 -24.6115 -24.6115  10.4503  17.3019  17.3019  17.3019
    19.2058  19.2058  39.9796

          k = 0.1443 0.1443 0.0000 (   350 PWs)   bands (ev):

   -53.7417 -24.7834 -24.6567 -24.5937  11.5529  16.9146  17.1666  18.0328
    18.9117  19.2460  36.9695

          k = 0.2887 0.2887 0.0000 (   354 PWs)   bands (ev):

   -53.6613 -25.1586 -24.7765 -24.5996  13.6353  16.2057  17.2760  19.0476
    19.3945  19.7249  31.0563

          k =-0.4330-0.4330 0.0000 (   360 PWs)   bands (ev):

   -53.6209 -25.3458 -24.8411 -24.6013  13.9794  15.8788  19.0924  19.1920
    19.5112  20.7489  27.2883

          k = 0.2887 0.1443 0.1443 (   359 PWs)   bands (ev):

   -53.6817 -25.0500 -24.7396 -24.6407  13.3361  16.4880  16.5926  18.7359
    19.4048  19.6154  34.0470

          k = 0.4330 0.2887 0.1443 (   351 PWs)   bands (ev):

   -53.6207 -25.2397 -24.8755 -24.6525  14.5876  16.0012  17.0734  19.0647
    19.6878  22.0073  28.6323

          k = 0.5774 0.2887 0.2887 (   351 PWs)   bands (ev):

   -53.6005 -25.1028 -25.1028 -24.6854  15.4519  16.1515  16.1515  19.4419
    19.4419  26.2206  26.2206

          k = 0.2887 0.2887 0.2887 (   354 PWs)   bands (ev):

   -53.6350 -25.1875 -24.7650 -24.7650  15.2518  15.8898  15.8898  19.3844
    19.3844  22.1170  31.6350

          k = 0.4330 0.4330 0.2887 (   348 PWs)   bands (ev):

   -53.6114 -25.1496 -24.9259 -24.7748  15.3947  15.7317  16.6667  19.4643
    19.5526  24.9496  27.3881

          k = 0.0000 0.0000 0.2887 (   349 PWs)   bands (ev):

   -53.7047 -24.8257 -24.7129 -24.7129  12.5400  17.3631  17.3631  17.8160
    18.0213  19.7132  36.4834

          k =-0.0000-0.1443 0.4330 (   359 PWs)   bands (ev):

   -53.6303 -25.1241 -24.8476 -24.7410  14.3688  16.4361  16.9851  18.3153
    19.5766  20.5043  31.6822

          k =-0.8660-0.2887-0.2887 (   360 PWs)   bands (ev):

   -53.5928 -25.2859 -24.9139 -24.7293  14.6300  16.5638  16.7228  18.5233
    20.6584  22.6703  27.2931

          k =-0.7217-0.1443-0.2887 (   358 PWs)   bands (ev):

   -53.5786 -25.1941 -25.0221 -24.7791  15.3433  15.5028  16.9602  18.9462
    19.9634  23.7305  29.2843

          k =-0.0000-0.0000 0.5774 (   362 PWs)   bands (ev):

   -53.5678 -25.0816 -24.9839 -24.9839  14.8749  15.3004  18.6204  18.6204
    19.5617  22.4962  32.2002

          k =-0.8660-0.1443-0.1443 (   354 PWs)   bands (ev):

   -53.5361 -25.1773 -25.0442 -24.9692  14.6677  14.7924  18.8477  19.1850
    20.4790  26.1325  27.5877

          k =-0.8660-0.8660-0.8660 (   370 PWs)   bands (ev):

   -53.5083 -25.1291 -25.1291 -25.1291  14.1762  14.1762  20.3896  20.3896
    20.3896  28.1806  28.1806

     the Fermi energy is    18.1740 ev

!    total energy              =    -248.19882894 Ry
     total all-electron energy =     -2101.731507 Ry
     estimated scf accuracy    <       0.00000052 Ry
     smearing contrib. (-TS)   =      -0.00054982 Ry
     internal energy E=F+TS    =    -248.19827912 Ry

     The total energy is F=E-TS. E is the sum of the following terms:
     one-electron contribution =     -59.70328336 Ry
     hartree contribution      =      37.68097882 Ry
     xc contribution           =     -22.22459788 Ry
     ewald contribution        =    -129.71020058 Ry
     one-center paw contrib.   =     -74.24117611 Ry

     total magnetization       =     0.00 Bohr mag/cell
     absolute magnetization    =     0.00 Bohr mag/cell

     convergence has been achieved in   6 iterations

     Forces acting on atoms (cartesian axes, Ry/au):

     atom    1 type  1   force =     0.00000000    0.00000000    0.00000000

     Total force =     0.000000     Total SCF correction =     0.000000


     Computing stress (Cartesian axis) and pressure

          total   stress  (Ry/bohr**3)                   (kbar)     P=     -436.99
  -0.00297057   0.00000000  -0.00000000         -436.99        0.00       -0.00
   0.00000000  -0.00297057   0.00000000            0.00     -436.99        0.00
  -0.00000000  -0.00000000  -0.00297057           -0.00       -0.00     -436.99


     Writing all to output data dir ./pwscf.save/ :
     XML data file, charge density, pseudopotentials, collected wavefunctions

     init_run     :      0.83s CPU      0.91s WALL (       1 calls)
     electrons    :      4.51s CPU      4.79s WALL (       1 calls)
     forces       :      0.09s CPU      0.10s WALL (       1 calls)
     stress       :      0.31s CPU      0.31s WALL (       1 calls)

     Called by init_run:
     wfcinit      :      0.08s CPU      0.08s WALL (       1 calls)
     potinit      :      0.44s CPU      0.50s WALL (       1 calls)
     hinit0       :      0.27s CPU      0.27s WALL (       1 calls)

     Called by electrons:
     c_bands      :      1.46s CPU      1.47s WALL (       7 calls)
     sum_band     :      0.48s CPU      0.49s WALL (       7 calls)
     v_of_rho     :      0.11s CPU      0.11s WALL (       7 calls)
     newd         :      0.17s CPU      0.23s WALL (       7 calls)
     PAW_pot      :      2.71s CPU      2.98s WALL (       7 calls)
     mix_rho      :      0.01s CPU      0.01s WALL (       7 calls)

     Called by c_bands:
     init_us_2    :      0.04s CPU      0.04s WALL (     544 calls)
     cegterg      :      1.40s CPU      1.42s WALL (     224 calls)

     Called by *egterg:
     cdiaghg      :      0.08s CPU      0.09s WALL (     819 calls)
     h_psi        :      1.09s CPU      1.10s WALL (     883 calls)
     s_psi        :      0.05s CPU      0.05s WALL (     883 calls)
     g_psi        :      0.00s CPU      0.00s WALL (     627 calls)

     Called by h_psi:
     h_psi:calbec :      0.07s CPU      0.07s WALL (     883 calls)
     vloc_psi     :      0.97s CPU      0.98s WALL (     883 calls)
                                        0.00s GPU  (     883 calls)
     add_vuspsi   :      0.05s CPU      0.05s WALL (     883 calls)

     General routines
     calbec       :      0.15s CPU      0.15s WALL (    1651 calls)
     fft          :      0.06s CPU      0.06s WALL (     215 calls)
     ffts         :      0.00s CPU      0.00s WALL (      28 calls)
     fftw         :      1.05s CPU      1.06s WALL (   15864 calls)
     interpolate  :      0.01s CPU      0.01s WALL (      14 calls)

     Parallel routines

     PWSCF        :      5.88s CPU      6.26s WALL


   This run was terminated on:  16:10:33  15Mar2026            

=------------------------------------------------------------------------------=
   JOB DONE.
=------------------------------------------------------------------------------=
